/*--------------------------------*- C++ -*----------------------------------*\
| =========                 |                                                 |
| \\      /  F ield         | OpenFOAM: The Open Source CFD Toolbox           |
|  \\    /   O peration     | Version:  5.x                                   |
|   \\  /    A nd           | Web:      www.OpenFOAM.org                      |
|    \\/     M anipulation  |                                                 |
\*---------------------------------------------------------------------------*/
/*   Windows 32 and 64 bit porting by blueCAPE: http://www.bluecape.com.pt   *\
|  Based on Windows porting (2.0.x v4) by Symscape: http://www.symscape.com   |
\*---------------------------------------------------------------------------*/
FoamFile
{
    version     2.0;
    format      ascii;
    class       volScalarField;
    location    "2";
    object      k;
}
// * * * * * * * * * * * * * * * * * * * * * * * * * * * * * * * * * * * * * //

dimensions      [0 2 -2 0 0 0 0];

internalField   nonuniform List<scalar> 
12560
(
0.0724685
0.0724585
0.0724406
0.0724202
0.0723911
0.0723503
0.0723118
0.0722761
0.0722442
0.0722161
0.0721913
0.0721692
0.0721497
0.0721329
0.0721187
0.0721075
0.0720991
0.072094
0.0720924
0.0720944
0.0720999
0.0721078
0.072115
0.0721214
0.0721275
0.072134
0.0721417
0.0721508
0.0721615
0.0721738
0.0721874
0.072202
0.0722171
0.0722324
0.0722478
0.0722642
0.0722821
0.0723021
0.072324
0.0723471
0.0723689
0.0723863
0.0723962
0.0723972
0.0723909
0.0723797
0.0723657
0.0723514
0.0723393
0.0723308
0.0723265
0.0723257
0.0723281
0.0723354
0.0723503
0.0723749
0.0724108
0.0724589
0.0725202
0.0725966
0.0726899
0.0728017
0.0729487
0.0731284
0.073543
0.0740609
0.0770598
0.758002
0.757975
0.757903
0.75778
0.757599
0.757372
0.757136
0.756931
0.756765
0.756629
0.756512
0.75641
0.756324
0.756254
0.756202
0.756166
0.756147
0.756147
0.756169
0.756211
0.756269
0.756314
0.756338
0.756357
0.756377
0.756401
0.756433
0.756474
0.756523
0.75658
0.756644
0.756709
0.756773
0.756837
0.756905
0.756982
0.75707
0.757172
0.757284
0.757398
0.757492
0.757547
0.757546
0.757487
0.757397
0.75729
0.757172
0.757061
0.756961
0.756878
0.756806
0.756733
0.756657
0.756595
0.756559
0.756554
0.756575
0.756612
0.756663
0.756718
0.756749
0.756718
0.7566
0.756371
0.756116
0.755243
0.755575
0.728279
0.728271
0.72823
0.728156
0.728057
0.727945
0.727835
0.727733
0.727637
0.727546
0.727459
0.727382
0.727317
0.727263
0.727214
0.727168
0.727122
0.727079
0.727043
0.727015
0.726999
0.726989
0.72699
0.727003
0.727024
0.72705
0.727081
0.727117
0.72716
0.72721
0.727266
0.727319
0.727357
0.727382
0.727401
0.727422
0.727447
0.727478
0.727516
0.727559
0.727604
0.727643
0.727669
0.727681
0.727685
0.727679
0.727661
0.727634
0.727597
0.727552
0.727497
0.727437
0.727379
0.727328
0.727287
0.727254
0.72722
0.727172
0.727105
0.727015
0.726896
0.726742
0.726546
0.726287
0.725912
0.725247
0.724251
0.692156
0.692153
0.692134
0.692099
0.692055
0.692008
0.691959
0.691911
0.691862
0.69181
0.691759
0.69171
0.691664
0.691622
0.691581
0.69154
0.691497
0.691451
0.691405
0.691361
0.691322
0.691289
0.691266
0.691254
0.691253
0.691258
0.691268
0.691281
0.691299
0.691321
0.691347
0.691371
0.691392
0.69141
0.691427
0.691443
0.691458
0.691474
0.691492
0.691512
0.691535
0.69156
0.691585
0.691608
0.691627
0.691641
0.691651
0.691657
0.691657
0.691649
0.691631
0.691605
0.691572
0.691536
0.691496
0.691449
0.691391
0.691318
0.691228
0.69112
0.69099
0.690834
0.690645
0.690396
0.690041
0.689475
0.688643
0.660205
0.660203
0.660195
0.660182
0.660164
0.660145
0.660124
0.660103
0.660079
0.660054
0.660028
0.660002
0.659977
0.659951
0.659925
0.659897
0.659866
0.659832
0.659796
0.659759
0.659722
0.659688
0.659659
0.659635
0.659618
0.659606
0.659599
0.659596
0.659597
0.6596
0.659607
0.659614
0.659622
0.659629
0.659637
0.659645
0.659654
0.659664
0.659674
0.659686
0.659699
0.659714
0.659729
0.659745
0.659759
0.659772
0.659784
0.659794
0.659802
0.659806
0.659803
0.659794
0.659777
0.659753
0.65972
0.659677
0.659621
0.659553
0.65947
0.659371
0.659251
0.659103
0.658919
0.658674
0.658333
0.65783
0.657154
0.62693
0.626929
0.626925
0.62692
0.626914
0.626908
0.6269
0.626891
0.626882
0.626871
0.62686
0.626849
0.626837
0.626824
0.62681
0.626794
0.626775
0.626754
0.626731
0.626706
0.62668
0.626654
0.62663
0.626608
0.626588
0.626571
0.626557
0.626546
0.626537
0.62653
0.626524
0.62652
0.626517
0.626515
0.626514
0.626515
0.626516
0.626519
0.626523
0.626528
0.626534
0.626541
0.626549
0.626556
0.626564
0.626571
0.626578
0.626584
0.626589
0.626591
0.62659
0.626583
0.62657
0.626549
0.62652
0.626481
0.626432
0.62637
0.626295
0.626204
0.626092
0.625952
0.625774
0.625538
0.625218
0.624777
0.624216
0.591146
0.591145
0.591143
0.59114
0.591138
0.591135
0.591133
0.59113
0.591127
0.591123
0.591119
0.591114
0.59111
0.591104
0.591098
0.59109
0.591081
0.591069
0.591057
0.591042
0.591027
0.591011
0.590995
0.59098
0.590965
0.59095
0.590937
0.590924
0.590913
0.590902
0.590892
0.590883
0.590875
0.590868
0.590861
0.590856
0.590852
0.590849
0.590847
0.590846
0.590845
0.590845
0.590846
0.590847
0.590848
0.59085
0.59085
0.59085
0.590849
0.590846
0.590839
0.590828
0.590813
0.590791
0.590762
0.590724
0.590677
0.590619
0.590547
0.59046
0.590352
0.590217
0.590045
0.589821
0.589526
0.589141
0.588671
0.552524
0.552522
0.55252
0.552518
0.552517
0.552515
0.552514
0.552513
0.552512
0.55251
0.552509
0.552508
0.552506
0.552504
0.552501
0.552498
0.552493
0.552488
0.552482
0.552474
0.552466
0.552458
0.552449
0.55244
0.552431
0.552421
0.552412
0.552402
0.552393
0.552384
0.552374
0.552365
0.552356
0.552348
0.55234
0.552332
0.552325
0.552318
0.552312
0.552307
0.552302
0.552297
0.552293
0.552288
0.552284
0.552279
0.552274
0.552269
0.552261
0.552252
0.55224
0.552224
0.552204
0.552179
0.552147
0.552108
0.55206
0.552001
0.55193
0.551844
0.551738
0.551606
0.551441
0.55123
0.550962
0.550627
0.550232
0.511078
0.511077
0.511074
0.511073
0.511072
0.51107
0.511069
0.511069
0.511068
0.511067
0.511066
0.511065
0.511064
0.511063
0.511062
0.51106
0.511058
0.511055
0.511052
0.511049
0.511045
0.511041
0.511037
0.511032
0.511027
0.511022
0.511017
0.511011
0.511005
0.510998
0.510992
0.510985
0.510978
0.51097
0.510963
0.510956
0.510948
0.51094
0.510933
0.510926
0.510918
0.510911
0.510903
0.510895
0.510887
0.510878
0.510869
0.510859
0.510846
0.510832
0.510816
0.510796
0.510772
0.510743
0.510709
0.510667
0.510618
0.510559
0.510487
0.510401
0.510297
0.51017
0.510012
0.509817
0.509577
0.509287
0.508953
0.467122
0.46712
0.467119
0.467117
0.467116
0.467115
0.467114
0.467113
0.467112
0.467111
0.467111
0.46711
0.467109
0.467108
0.467107
0.467106
0.467105
0.467103
0.467102
0.4671
0.467098
0.467096
0.467094
0.467092
0.467089
0.467087
0.467084
0.467081
0.467078
0.467074
0.46707
0.467065
0.467061
0.467055
0.46705
0.467044
0.467037
0.467031
0.467024
0.467016
0.467008
0.467
0.466991
0.466981
0.466971
0.46696
0.466948
0.466935
0.46692
0.466903
0.466884
0.466861
0.466835
0.466804
0.466768
0.466725
0.466675
0.466616
0.466546
0.466462
0.466362
0.466241
0.466095
0.465918
0.465706
0.465458
0.465178
0.421351
0.42135
0.421348
0.421347
0.421346
0.421345
0.421345
0.421344
0.421343
0.421342
0.421342
0.421341
0.42134
0.42134
0.421339
0.421338
0.421337
0.421336
0.421335
0.421334
0.421332
0.421331
0.42133
0.421329
0.421328
0.421327
0.421325
0.421324
0.421322
0.42132
0.421318
0.421315
0.421312
0.421309
0.421305
0.4213
0.421296
0.42129
0.421284
0.421278
0.42127
0.421262
0.421254
0.421244
0.421234
0.421222
0.421209
0.421195
0.421179
0.421161
0.421141
0.421117
0.42109
0.421059
0.421023
0.420982
0.420933
0.420876
0.420809
0.420731
0.420638
0.420527
0.420396
0.420241
0.42006
0.419852
0.419621
0.375003
0.375002
0.375001
0.375
0.375
0.374999
0.374999
0.374998
0.374997
0.374997
0.374996
0.374996
0.374995
0.374995
0.374994
0.374994
0.374993
0.374992
0.374991
0.374991
0.37499
0.374989
0.374989
0.374988
0.374987
0.374987
0.374986
0.374985
0.374984
0.374983
0.374981
0.37498
0.374978
0.374976
0.374973
0.37497
0.374967
0.374963
0.374958
0.374953
0.374946
0.37494
0.374932
0.374923
0.374913
0.374902
0.37489
0.374877
0.374861
0.374844
0.374824
0.374802
0.374776
0.374747
0.374714
0.374675
0.37463
0.374578
0.374518
0.374448
0.374366
0.37427
0.374159
0.374029
0.373881
0.373714
0.373529
0.330058
0.330058
0.330057
0.330057
0.330057
0.330056
0.330056
0.330056
0.330056
0.330055
0.330055
0.330055
0.330054
0.330054
0.330054
0.330053
0.330053
0.330052
0.330052
0.330052
0.330051
0.330051
0.33005
0.33005
0.33005
0.330049
0.330049
0.330048
0.330048
0.330047
0.330046
0.330045
0.330044
0.330042
0.330041
0.330038
0.330036
0.330033
0.33003
0.330025
0.330021
0.330015
0.330009
0.330002
0.329993
0.329984
0.329973
0.329962
0.329948
0.329933
0.329916
0.329896
0.329874
0.329849
0.32982
0.329787
0.329749
0.329705
0.329655
0.329597
0.32953
0.329453
0.329364
0.329263
0.32915
0.329023
0.328885
0.289443
0.289443
0.289443
0.289443
0.289442
0.289442
0.289442
0.289442
0.289442
0.289442
0.289442
0.289442
0.289442
0.289441
0.289441
0.289441
0.289441
0.289441
0.28944
0.28944
0.28944
0.28944
0.28944
0.289439
0.289439
0.289439
0.289439
0.289438
0.289438
0.289438
0.289437
0.289436
0.289436
0.289435
0.289434
0.289432
0.289431
0.289428
0.289426
0.289423
0.28942
0.289416
0.289411
0.289406
0.2894
0.289393
0.289385
0.289375
0.289365
0.289353
0.28934
0.289325
0.289308
0.289289
0.289267
0.289241
0.289213
0.28918
0.289143
0.289101
0.289053
0.288998
0.288935
0.288865
0.288787
0.288701
0.288608
0.257152
0.257152
0.257152
0.257152
0.257152
0.257152
0.257152
0.257152
0.257152
0.257152
0.257152
0.257152
0.257152
0.257152
0.257152
0.257152
0.257151
0.257151
0.257151
0.257151
0.257151
0.257151
0.257151
0.257151
0.257151
0.25715
0.25715
0.25715
0.25715
0.25715
0.257149
0.257149
0.257148
0.257148
0.257147
0.257147
0.257146
0.257145
0.257143
0.257141
0.25714
0.257137
0.257134
0.257131
0.257128
0.257123
0.257119
0.257113
0.257107
0.2571
0.257092
0.257083
0.257072
0.257061
0.257048
0.257033
0.257016
0.256997
0.256976
0.256952
0.256924
0.256894
0.256859
0.256821
0.256779
0.256734
0.256685
0.238264
0.238264
0.238264
0.238264
0.238264
0.238263
0.238263
0.238263
0.238263
0.238263
0.238263
0.238263
0.238263
0.238263
0.238263
0.238263
0.238263
0.238263
0.238262
0.238262
0.238262
0.238262
0.238262
0.238262
0.238262
0.238262
0.238261
0.238261
0.238261
0.238261
0.238261
0.238261
0.238261
0.238261
0.23826
0.23826
0.23826
0.23826
0.238259
0.238259
0.238258
0.238258
0.238257
0.238256
0.238255
0.238254
0.238253
0.238252
0.23825
0.238249
0.238247
0.238245
0.238242
0.23824
0.238237
0.238234
0.238231
0.238227
0.238223
0.238218
0.238213
0.238208
0.238202
0.238195
0.238188
0.23818
0.238172
0.238877
0.238877
0.238877
0.238877
0.238877
0.238877
0.238876
0.238876
0.238876
0.238876
0.238876
0.238876
0.238875
0.238875
0.238875
0.238875
0.238875
0.238874
0.238874
0.238874
0.238874
0.238874
0.238874
0.238873
0.238873
0.238873
0.238873
0.238873
0.238873
0.238873
0.238873
0.238873
0.238873
0.238873
0.238873
0.238873
0.238874
0.238874
0.238875
0.238875
0.238876
0.238877
0.238878
0.23888
0.238881
0.238883
0.238885
0.238888
0.238891
0.238894
0.238898
0.238903
0.238908
0.238914
0.238921
0.238929
0.238939
0.238949
0.23896
0.238973
0.238988
0.239004
0.239022
0.239042
0.239064
0.239087
0.239112
0.258814
0.258814
0.258814
0.258813
0.258813
0.258813
0.258812
0.258812
0.258812
0.258811
0.258811
0.258811
0.25881
0.25881
0.25881
0.258809
0.258809
0.258809
0.258809
0.258808
0.258808
0.258808
0.258807
0.258807
0.258807
0.258807
0.258806
0.258806
0.258806
0.258806
0.258806
0.258806
0.258806
0.258806
0.258807
0.258807
0.258808
0.258809
0.25881
0.258812
0.258814
0.258816
0.258819
0.258822
0.258825
0.25883
0.258834
0.25884
0.258847
0.258854
0.258863
0.258873
0.258885
0.258898
0.258913
0.25893
0.258948
0.25897
0.258993
0.25902
0.259049
0.259082
0.259117
0.259156
0.259199
0.259244
0.259293
0.29179
0.29179
0.291789
0.291789
0.291788
0.291788
0.291787
0.291787
0.291786
0.291786
0.291785
0.291785
0.291784
0.291784
0.291783
0.291783
0.291783
0.291782
0.291782
0.291781
0.291781
0.29178
0.29178
0.29178
0.291779
0.291779
0.291778
0.291778
0.291778
0.291777
0.291777
0.291777
0.291777
0.291778
0.291778
0.291779
0.29178
0.291782
0.291783
0.291785
0.291788
0.291791
0.291795
0.291799
0.291804
0.29181
0.291817
0.291825
0.291834
0.291845
0.291857
0.291871
0.291887
0.291905
0.291926
0.291949
0.291975
0.292004
0.292036
0.292071
0.292111
0.292154
0.292201
0.292253
0.292308
0.292368
0.292432
0.332726
0.332725
0.332724
0.332724
0.332723
0.332723
0.332722
0.332721
0.332721
0.33272
0.332719
0.332719
0.332718
0.332717
0.332717
0.332716
0.332715
0.332715
0.332714
0.332714
0.332713
0.332712
0.332711
0.332711
0.33271
0.332709
0.332709
0.332708
0.332708
0.332707
0.332707
0.332707
0.332707
0.332707
0.332708
0.332709
0.33271
0.332712
0.332714
0.332716
0.332719
0.332723
0.332728
0.332733
0.332739
0.332746
0.332755
0.332764
0.332776
0.332788
0.332803
0.33282
0.332839
0.33286
0.332884
0.332911
0.332942
0.332975
0.333013
0.333054
0.333099
0.333149
0.333203
0.333262
0.333325
0.333393
0.333466
0.377684
0.377683
0.377682
0.377681
0.37768
0.377679
0.377678
0.377678
0.377677
0.377676
0.377675
0.377674
0.377673
0.377672
0.377671
0.37767
0.377669
0.377669
0.377668
0.377667
0.377666
0.377665
0.377663
0.377662
0.377661
0.37766
0.377659
0.377659
0.377658
0.377657
0.377657
0.377657
0.377657
0.377657
0.377658
0.377659
0.37766
0.377662
0.377665
0.377668
0.377672
0.377676
0.377681
0.377687
0.377694
0.377702
0.377712
0.377723
0.377735
0.377749
0.377766
0.377784
0.377805
0.377828
0.377854
0.377883
0.377916
0.377952
0.377992
0.378036
0.378084
0.378137
0.378194
0.378256
0.378322
0.378394
0.378469
0.423814
0.423812
0.423811
0.42381
0.423809
0.423808
0.423807
0.423806
0.423804
0.423803
0.423802
0.423801
0.4238
0.423799
0.423797
0.423796
0.423795
0.423793
0.423792
0.423791
0.423789
0.423788
0.423786
0.423785
0.423783
0.423782
0.423781
0.42378
0.423779
0.423779
0.423778
0.423778
0.423778
0.423779
0.42378
0.423781
0.423783
0.423786
0.423789
0.423793
0.423797
0.423802
0.423808
0.423815
0.423823
0.423832
0.423842
0.423854
0.423867
0.423882
0.423899
0.423918
0.42394
0.423964
0.423991
0.42402
0.424053
0.42409
0.42413
0.424174
0.424222
0.424275
0.424332
0.424394
0.42446
0.424531
0.424606
0.469207
0.469206
0.469204
0.469202
0.469201
0.4692
0.469198
0.469197
0.469196
0.469194
0.469193
0.469191
0.46919
0.469188
0.469186
0.469184
0.469183
0.469181
0.469179
0.469177
0.469175
0.469174
0.469172
0.469171
0.469169
0.469168
0.469167
0.469166
0.469165
0.469165
0.469165
0.469165
0.469166
0.469167
0.469169
0.469171
0.469174
0.469177
0.469182
0.469186
0.469192
0.469198
0.469205
0.469213
0.469221
0.469231
0.469242
0.469254
0.469268
0.469283
0.4693
0.469319
0.46934
0.469363
0.469389
0.469418
0.469449
0.469484
0.469522
0.469564
0.46961
0.469661
0.469715
0.469774
0.469837
0.469904
0.469976
0.512689
0.512688
0.512685
0.512684
0.512682
0.51268
0.512678
0.512677
0.512675
0.512673
0.512671
0.512669
0.512667
0.512665
0.512663
0.512661
0.512658
0.512656
0.512654
0.512652
0.51265
0.512649
0.512647
0.512646
0.512645
0.512644
0.512644
0.512644
0.512644
0.512645
0.512646
0.512647
0.512649
0.512652
0.512655
0.512659
0.512663
0.512669
0.512674
0.51268
0.512687
0.512694
0.512702
0.512711
0.51272
0.512731
0.512741
0.512753
0.512766
0.512781
0.512796
0.512813
0.512832
0.512853
0.512876
0.512902
0.51293
0.512961
0.512995
0.513033
0.513075
0.513121
0.513171
0.513224
0.513282
0.513344
0.513409
0.553613
0.553611
0.553608
0.553606
0.553603
0.553601
0.553598
0.553596
0.553594
0.553592
0.553589
0.553587
0.553585
0.553583
0.55358
0.553577
0.553575
0.553573
0.553571
0.55357
0.553569
0.553568
0.553568
0.553568
0.553568
0.553569
0.55357
0.553572
0.553575
0.553578
0.553581
0.553585
0.55359
0.553595
0.5536
0.553606
0.553613
0.55362
0.553627
0.553635
0.553643
0.553651
0.553659
0.553668
0.553677
0.553686
0.553696
0.553706
0.553716
0.553728
0.55374
0.553753
0.553768
0.553785
0.553803
0.553824
0.553846
0.553872
0.553901
0.553933
0.553968
0.554008
0.554051
0.554098
0.554149
0.554204
0.554262
0.591696
0.591695
0.591691
0.591687
0.591684
0.591681
0.591677
0.591674
0.591672
0.59167
0.591668
0.591666
0.591664
0.591662
0.59166
0.591658
0.591656
0.591655
0.591655
0.591656
0.591657
0.591659
0.591661
0.591665
0.591669
0.591673
0.591678
0.591683
0.59169
0.591696
0.591704
0.591711
0.591719
0.591727
0.591735
0.591743
0.591752
0.59176
0.591769
0.591778
0.591786
0.591793
0.5918
0.591807
0.591813
0.591819
0.591825
0.59183
0.591835
0.591841
0.591847
0.591854
0.591863
0.591873
0.591885
0.5919
0.591916
0.591935
0.591957
0.591982
0.592011
0.592043
0.592079
0.592118
0.592162
0.592209
0.59226
0.626939
0.626937
0.626932
0.626926
0.626922
0.626919
0.626915
0.626913
0.626911
0.626911
0.626911
0.626911
0.62691
0.626909
0.626908
0.626908
0.62691
0.626913
0.626918
0.626924
0.62693
0.626938
0.626946
0.626955
0.626964
0.626974
0.626984
0.626994
0.627005
0.627016
0.627027
0.627039
0.62705
0.62706
0.627071
0.62708
0.627088
0.627096
0.627104
0.627112
0.627118
0.627122
0.627125
0.627126
0.627126
0.627125
0.627123
0.62712
0.627116
0.627113
0.62711
0.62711
0.627111
0.627116
0.627122
0.627131
0.627141
0.627154
0.627169
0.627187
0.627208
0.627233
0.627262
0.627295
0.627332
0.627372
0.627416
0.659666
0.659663
0.659656
0.659649
0.659645
0.659643
0.659643
0.659643
0.659645
0.659648
0.659653
0.659657
0.65966
0.659663
0.659667
0.659674
0.659683
0.659695
0.659709
0.659724
0.659741
0.659758
0.659775
0.659792
0.659809
0.659824
0.659838
0.65985
0.659862
0.659875
0.659888
0.659902
0.659916
0.659928
0.659938
0.659945
0.659949
0.659952
0.659955
0.659959
0.659961
0.659958
0.659952
0.659942
0.659931
0.659918
0.659904
0.659889
0.659875
0.659862
0.659851
0.659845
0.659843
0.659844
0.659848
0.659854
0.659861
0.659869
0.659878
0.65989
0.659905
0.659924
0.659947
0.659974
0.660005
0.660038
0.660073
0.691035
0.691032
0.691021
0.691015
0.691016
0.691021
0.691029
0.691037
0.691045
0.691055
0.691067
0.691081
0.691097
0.691113
0.691128
0.691146
0.691168
0.691195
0.691224
0.691256
0.691288
0.691318
0.691344
0.691365
0.691383
0.691399
0.691412
0.691421
0.691429
0.691439
0.691451
0.691464
0.691477
0.691486
0.69149
0.691486
0.691476
0.691465
0.691459
0.691455
0.691451
0.691439
0.691421
0.691396
0.691368
0.69134
0.691314
0.691291
0.691272
0.691256
0.691246
0.691242
0.691243
0.691248
0.691254
0.69126
0.691265
0.69127
0.691277
0.691284
0.691295
0.69131
0.691328
0.691349
0.691371
0.691393
0.691413
0.726524
0.726514
0.726486
0.726466
0.726466
0.726478
0.726496
0.726517
0.72654
0.726567
0.726599
0.726635
0.726673
0.726712
0.726752
0.726796
0.726846
0.726902
0.72696
0.727016
0.727063
0.727097
0.727118
0.727127
0.727127
0.727123
0.727119
0.727116
0.727117
0.727121
0.727129
0.727136
0.72714
0.727139
0.727128
0.727101
0.727059
0.727013
0.72698
0.726962
0.726951
0.726935
0.726911
0.726879
0.726842
0.726805
0.72678
0.726773
0.726777
0.726785
0.726794
0.726808
0.726824
0.72684
0.726851
0.726857
0.726859
0.726861
0.726864
0.72687
0.726878
0.726887
0.726896
0.726902
0.726904
0.726901
0.726892
0.755521
0.755486
0.755408
0.755346
0.755321
0.755325
0.755349
0.755389
0.755447
0.755517
0.755594
0.755675
0.755763
0.75586
0.755948
0.756026
0.756103
0.756184
0.756265
0.756338
0.756388
0.756408
0.756397
0.756362
0.756313
0.75626
0.756214
0.75618
0.756155
0.756136
0.756117
0.756092
0.756059
0.756024
0.755989
0.755946
0.755878
0.755778
0.755673
0.755592
0.75554
0.755519
0.755525
0.755544
0.755564
0.755584
0.755609
0.755646
0.755695
0.755753
0.75581
0.755862
0.755906
0.755939
0.755961
0.75597
0.755967
0.755955
0.755937
0.755915
0.755887
0.755851
0.755806
0.755751
0.755687
0.755614
0.755534
0.072037
0.0720349
0.07203
0.0720219
0.0720138
0.0720085
0.0720069
0.0720086
0.0720135
0.0720228
0.0720351
0.0720494
0.0720653
0.0720828
0.0721004
0.0721168
0.0721325
0.0721481
0.0721636
0.072178
0.0721897
0.072197
0.072199
0.0721959
0.0721887
0.0721791
0.0721689
0.0721603
0.0721539
0.0721489
0.0721444
0.0721397
0.0721342
0.0721279
0.0721213
0.0721138
0.0721038
0.0720898
0.0720732
0.0720569
0.0720429
0.0720325
0.0720262
0.0720231
0.0720219
0.0720217
0.0720225
0.0720248
0.072029
0.0720347
0.0720413
0.0720479
0.0720538
0.0720585
0.0720613
0.0720621
0.0720606
0.072057
0.0720514
0.0720443
0.0720356
0.072025
0.0720126
0.071998
0.0719813
0.0719626
0.0719421
0.233473
0.562446
0.985176
1.37071
1.66084
1.86288
2.00724
2.11831
2.20948
2.28707
2.35418
2.41255
2.46339
2.50774
2.54659
2.58099
2.61199
2.64063
2.66793
2.69477
2.72195
2.75012
2.77971
2.81108
2.84441
2.87962
2.91631
2.95391
2.99177
3.02919
3.06544
3.09989
3.13202
3.16125
3.18724
3.20983
3.2287
3.2438
3.25529
3.26289
3.26685
3.26739
3.26434
3.25816
3.24881
3.23659
3.22186
3.20481
3.18572
3.16493
3.14272
3.11911
3.09421
3.06827
3.04142
3.01375
2.98537
2.95639
2.92695
2.89722
2.86731
2.83737
2.80748
2.77775
2.74823
2.719
2.69014
2.6617
2.63372
2.60624
2.57927
2.55283
2.52695
2.50163
2.47687
2.45267
2.42901
2.40587
2.38323
2.36106
2.33931
2.31795
2.29691
2.27616
2.25564
2.23532
2.21515
2.19509
2.17511
2.1552
2.13532
2.11545
2.09557
2.07565
2.05566
2.03559
2.01541
1.99512
1.97468
1.95409
1.93333
1.91239
1.89128
1.87
1.84857
1.82698
1.80524
1.78337
1.76137
1.73926
1.71706
1.69478
1.67246
1.65006
1.62765
1.60518
1.58275
1.56038
1.53815
1.5161
1.49429
1.47268
1.45126
1.43001
1.4089
1.38792
1.36706
1.34635
1.32577
1.30535
1.2851
1.26504
1.24518
1.22553
1.2061
1.1869
1.16794
1.1492
1.1307
1.11243
1.09438
1.07656
1.05896
1.04157
1.02439
1.00741
0.990634
0.974053
0.957662
0.941458
0.925441
0.909609
0.893965
0.87851
0.863247
0.848179
0.833311
0.818645
0.804186
0.789936
0.775899
0.762078
0.748476
0.735095
0.721935
0.708996
0.696279
0.683781
0.6715
0.659436
0.647586
0.63595
0.624527
0.613315
0.602314
0.591523
0.580939
0.570559
0.560381
0.550399
0.54061
0.531005
0.521588
0.512317
0.503292
0.494652
0.759363
0.826788
0.94104
1.09947
1.28461
1.47282
1.64663
1.79848
1.92795
2.03801
2.13225
2.21358
2.28408
2.34531
2.39858
2.44515
2.48621
2.52294
2.55644
2.58775
2.61782
2.64743
2.67721
2.70765
2.73916
2.77188
2.80568
2.84023
2.87507
2.9096
2.94324
2.97539
3.00552
3.0331
3.05773
3.07919
3.09717
3.11157
3.12244
3.12961
3.13322
3.13343
3.1302
3.12383
3.11436
3.10204
3.08711
3.06957
3.04995
3.02849
3.00537
2.98088
2.9552
2.92872
2.90151
2.87362
2.84515
2.81625
2.78713
2.75789
2.72864
2.69947
2.67048
2.64174
2.61335
2.58538
2.55791
2.53097
2.50459
2.47879
2.45357
2.42894
2.40492
2.38153
2.35876
2.33661
2.31505
2.29408
2.27366
2.25376
2.23433
2.21532
2.19668
2.17835
2.16028
2.14243
2.12473
2.10716
2.08966
2.07223
2.05483
2.03743
2.02002
2.00254
1.98497
1.9673
1.9495
1.93156
1.91346
1.89516
1.87665
1.85792
1.83899
1.81986
1.80054
1.78102
1.76131
1.74143
1.72139
1.70121
1.68089
1.66044
1.63989
1.61921
1.59844
1.57755
1.55656
1.5355
1.51442
1.49337
1.47242
1.45164
1.43106
1.41064
1.39034
1.37014
1.35004
1.33004
1.31016
1.2904
1.27078
1.25132
1.23204
1.21293
1.19402
1.17531
1.15681
1.13852
1.12044
1.10257
1.0849
1.06743
1.05017
1.0331
1.01623
0.999543
0.983045
0.966729
0.950592
0.934632
0.918848
0.903242
0.887813
0.872566
0.857504
0.842629
0.827946
0.813458
0.799169
0.785083
0.771202
0.757532
0.744073
0.730828
0.717799
0.704986
0.692389
0.680005
0.667835
0.655875
0.644126
0.632585
0.621253
0.610129
0.599211
0.588499
0.57799
0.567683
0.557574
0.547658
0.537932
0.528386
0.519026
0.50981
0.500836
0.492244
0.723552
0.732015
0.756833
0.805223
0.881877
0.986479
1.11373
1.25506
1.40105
1.54363
1.67716
1.79862
1.90701
2.00266
2.0866
2.1601
2.22454
2.28125
2.3316
2.37685
2.4182
2.4567
2.49322
2.52852
2.56325
2.59785
2.63252
2.66723
2.70181
2.73586
2.76899
2.80073
2.83058
2.8581
2.88291
2.90471
2.92324
2.93834
2.95
2.9581
2.9627
2.96393
2.9618
2.95653
2.94821
2.93703
2.92322
2.90684
2.8883
2.86775
2.84527
2.82134
2.79624
2.77008
2.74308
2.71544
2.68731
2.65888
2.63044
2.602
2.57363
2.54543
2.51748
2.48988
2.46279
2.43627
2.41035
2.38505
2.3604
2.33638
2.31301
2.29027
2.26821
2.24682
2.22612
2.2061
2.18674
2.16804
2.14994
2.13241
2.1154
2.09886
2.08271
2.06692
2.05142
2.03616
2.02108
2.00612
1.99126
1.97646
1.96171
1.94696
1.93219
1.91736
1.90242
1.88737
1.87217
1.85681
1.84125
1.82547
1.80944
1.79316
1.77664
1.75988
1.74288
1.72565
1.70819
1.69051
1.67264
1.65458
1.63636
1.61798
1.59944
1.58074
1.56189
1.54288
1.5237
1.50436
1.48486
1.46525
1.44553
1.42582
1.40625
1.38685
1.36754
1.34829
1.32911
1.30999
1.29094
1.27199
1.25313
1.2344
1.2158
1.19736
1.17907
1.16096
1.14302
1.12527
1.1077
1.09031
1.0731
1.05607
1.03922
1.02255
1.00605
0.989724
0.973569
0.95758
0.941757
0.926099
0.910605
0.895277
0.880117
0.865129
0.850316
0.835681
0.821229
0.806963
0.792888
0.779006
0.765322
0.751839
0.73856
0.725489
0.712625
0.69997
0.687524
0.675286
0.663255
0.651429
0.639807
0.628389
0.617174
0.606161
0.595349
0.584739
0.574328
0.564114
0.554094
0.544263
0.534619
0.525151
0.515865
0.506719
0.497811
0.489282
0.687811
0.688333
0.691892
0.701273
0.719868
0.751007
0.797476
0.860985
0.941662
1.0378
1.146
1.26171
1.37998
1.4963
1.6071
1.71006
1.80403
1.88883
1.96493
2.03322
2.09472
2.15051
2.20159
2.24892
2.29338
2.3357
2.37639
2.41579
2.45404
2.49107
2.52672
2.56073
2.59275
2.62244
2.64949
2.67362
2.6946
2.71226
2.72653
2.73732
2.74466
2.74862
2.74927
2.74675
2.74118
2.73273
2.7216
2.7079
2.69195
2.67393
2.65399
2.63248
2.60971
2.58558
2.56043
2.53456
2.50821
2.48151
2.45455
2.42752
2.40056
2.3738
2.34734
2.3213
2.29589
2.27113
2.24704
2.22361
2.20086
2.1788
2.15741
2.1367
2.11669
2.09741
2.07889
2.06112
2.04407
2.02772
2.01202
1.99693
1.9824
1.96838
1.95479
1.94159
1.92873
1.91613
1.90372
1.89145
1.8793
1.86725
1.85525
1.84329
1.83133
1.81928
1.80714
1.79488
1.78246
1.76987
1.75707
1.74401
1.73066
1.71704
1.70313
1.68895
1.6745
1.65976
1.64475
1.62948
1.61397
1.59825
1.58233
1.5662
1.54989
1.53339
1.5167
1.49983
1.48275
1.46546
1.44794
1.43021
1.41224
1.39406
1.37581
1.35769
1.33959
1.3215
1.30342
1.28536
1.26732
1.24933
1.23139
1.21354
1.19578
1.17812
1.1606
1.1432
1.12595
1.10885
1.09189
1.07509
1.05844
1.04195
1.02561
1.00942
0.99338
0.977495
0.961761
0.946177
0.930741
0.915455
0.90032
0.885338
0.870511
0.855844
0.84134
0.827004
0.81284
0.798851
0.785041
0.771415
0.757977
0.74473
0.731677
0.718822
0.706166
0.693711
0.681457
0.669402
0.657547
0.645891
0.634431
0.623168
0.612102
0.601231
0.590556
0.580076
0.56979
0.559696
0.54979
0.540068
0.530528
0.52116
0.511969
0.502915
0.494092
0.485644
0.656476
0.655991
0.655821
0.656577
0.659427
0.66571
0.676932
0.694776
0.72094
0.756981
0.804093
0.862853
0.93299
1.01326
1.10149
1.19488
1.29036
1.38508
1.47668
1.56356
1.6448
1.72009
1.78957
1.85369
1.91306
1.96835
2.02017
2.06904
2.11535
2.15932
2.20104
2.2405
2.27759
2.31212
2.3439
2.37272
2.3984
2.4208
2.43982
2.4554
2.46755
2.4763
2.48172
2.48394
2.48307
2.47926
2.4727
2.46353
2.45199
2.43829
2.4226
2.40521
2.3864
2.36622
2.34492
2.32277
2.30001
2.27677
2.25296
2.2289
2.20482
2.18086
2.15717
2.13386
2.11097
2.0886
2.06684
2.04572
2.02528
2.00553
1.9865
1.96818
1.95058
1.93371
1.91766
1.90237
1.88781
1.87394
1.86073
1.84813
1.83611
1.8246
1.81355
1.80292
1.79262
1.78263
1.77287
1.7633
1.7539
1.74462
1.73545
1.72635
1.71729
1.70813
1.69887
1.68949
1.67998
1.67029
1.66039
1.65018
1.63967
1.62886
1.61775
1.60633
1.5946
1.58254
1.57017
1.5575
1.54455
1.53135
1.51791
1.50423
1.49033
1.47621
1.46187
1.44733
1.43257
1.41759
1.40235
1.38685
1.37105
1.35495
1.33854
1.32201
1.3054
1.28871
1.27197
1.25518
1.23835
1.22152
1.20469
1.18788
1.17113
1.15443
1.13782
1.12129
1.10487
1.08855
1.07235
1.05626
1.04029
1.02445
1.00872
0.993123
0.977651
0.962306
0.94709
0.932002
0.917045
0.902218
0.887525
0.87297
0.858555
0.844286
0.830166
0.816201
0.802393
0.788748
0.77527
0.761963
0.748831
0.735878
0.723108
0.710524
0.698129
0.685925
0.673911
0.662088
0.650456
0.639013
0.627758
0.616692
0.605814
0.595124
0.584622
0.574308
0.564181
0.554238
0.544477
0.534895
0.525488
0.516247
0.507178
0.498241
0.489526
0.481181
0.623641
0.623126
0.622642
0.622136
0.621867
0.622265
0.623834
0.627218
0.633165
0.642516
0.656197
0.675185
0.70044
0.732805
0.772875
0.820865
0.8765
0.93898
1.00703
1.07903
1.15325
1.22797
1.30175
1.37343
1.44228
1.50788
1.57011
1.62901
1.68473
1.73742
1.7872
1.83419
1.87841
1.91981
1.95832
1.9938
2.02614
2.05524
2.081
2.10337
2.12233
2.13791
2.15016
2.15916
2.16503
2.1679
2.16794
2.16529
2.16016
2.15274
2.14324
2.13188
2.11892
2.10451
2.08885
2.07216
2.05467
2.03655
2.01781
1.99867
1.9793
1.9599
1.94061
1.92155
1.90263
1.88402
1.86585
1.84822
1.83118
1.81477
1.79903
1.78397
1.76959
1.75587
1.74278
1.73035
1.71857
1.70743
1.6969
1.68696
1.67756
1.66867
1.66023
1.65219
1.64449
1.63707
1.62994
1.62304
1.61632
1.60975
1.60332
1.59698
1.59067
1.58434
1.57797
1.57151
1.56494
1.5582
1.55125
1.54396
1.53637
1.52847
1.52026
1.51174
1.50288
1.49364
1.48406
1.47414
1.46392
1.45341
1.44263
1.43157
1.42024
1.40865
1.39683
1.38478
1.3725
1.35999
1.34722
1.33417
1.32083
1.30718
1.29312
1.27856
1.26374
1.24875
1.2336
1.21833
1.20295
1.1875
1.17199
1.15645
1.1409
1.12535
1.10983
1.09435
1.07892
1.06356
1.04826
1.03304
1.01789
1.00283
0.987857
0.972977
0.958192
0.943508
0.928924
0.914446
0.900074
0.885812
0.871664
0.857634
0.843728
0.829949
0.816304
0.802796
0.789431
0.776212
0.763144
0.750233
0.737482
0.724895
0.712478
0.700233
0.688164
0.676273
0.664561
0.653028
0.641675
0.6305
0.619503
0.608684
0.598044
0.587582
0.577298
0.567193
0.557266
0.547515
0.537938
0.528532
0.519293
0.510213
0.501297
0.492508
0.483931
0.475716
0.588177
0.587715
0.587275
0.586813
0.586255
0.585685
0.585248
0.585171
0.585708
0.587144
0.58982
0.594138
0.600561
0.609604
0.62182
0.637769
0.657979
0.682891
0.712806
0.747828
0.787828
0.83243
0.881027
0.932841
0.986993
1.04259
1.09878
1.15482
1.21011
1.26416
1.31661
1.36719
1.41569
1.46194
1.50577
1.54703
1.58557
1.62126
1.65397
1.68361
1.71012
1.73347
1.75366
1.77073
1.78476
1.79583
1.80407
1.80961
1.81261
1.81325
1.81171
1.80819
1.8029
1.79604
1.78777
1.7783
1.76781
1.7565
1.74443
1.73177
1.71867
1.7053
1.6918
1.67831
1.66486
1.65154
1.63846
1.62572
1.61339
1.60152
1.59015
1.57932
1.56902
1.55927
1.54995