/*--------------------------------*- C++ -*----------------------------------*\
| =========                 |                                                 |
| \\      /  F ield         | OpenFOAM: The Open Source CFD Toolbox           |
|  \\    /   O peration     | Version:  5.x                                   |
|   \\  /    A nd           | Web:      www.OpenFOAM.org                      |
|    \\/     M anipulation  |                                                 |
\*---------------------------------------------------------------------------*/
/*   Windows 32 and 64 bit porting by blueCAPE: http://www.bluecape.com.pt   *\
|  Based on Windows porting (2.0.x v4) by Symscape: http://www.symscape.com   |
\*---------------------------------------------------------------------------*/
FoamFile
{
    version     2.0;
    format      ascii;
    class       volScalarField;
    location    "1.975";
    object      omega;
}
// * * * * * * * * * * * * * * * * * * * * * * * * * * * * * * * * * * * * * //

dimensions      [0 0 -1 0 0 0 0];

internalField   nonuniform List<scalar> 
12560
(
19504.4
19504.4
19504.4
19504.4
19504.4
19504.4
19504.4
19504.4
19504.4
19504.4
19504.4
19504.4
19504.4
19504.4
19504.4
19504.4
19504.4
19504.4
19504.4
19504.4
19504.4
19504.4
19504.4
19504.4
19504.4
19504.4
19504.4
19504.4
19504.4
19504.4
19504.4
19504.4
19504.4
19504.4
19504.4
19504.4
19504.4
19504.4
19504.4
19504.4
19504.4
19504.4
19504.4
19504.4
19504.4
19504.4
19504.4
19504.4
19504.4
19504.4
19504.4
19504.4
19504.4
19504.4
19504.4
19504.4
19504.4
19504.4
19504.4
19504.4
19504.4
19504.4
19504.4
19504.4
19504.4
19504.4
19504.4
8272.28
8271.42
8270.74
8272.34
8275.78
8279.03
8280.33
8280.13
8279.79
8279.93
8280.45
8281.11
8281.71
8282.13
8282.36
8282.44
8282.23
8281.66
8280.72
8279.53
8278.32
8278.4
8278.92
8278.84
8278.56
8278.09
8277.42
8276.64
8275.84
8275
8274.22
8273.58
8272.96
8272.2
8271.17
8269.87
8268.31
8266.61
8264.96
8263.65
8263.4
8264.38
8266.39
8268.94
8270.5
8271.7
8272.63
8272.85
8272.71
8272.26
8271.89
8272.06
8272.22
8271.57
8270.04
8267.94
8265.67
8263.26
8260.49
8257.36
8255.02
8253.83
8253.25
8251.06
8246.74
8231.93
8217.19
4152.46
4152.46
4152.73
4153.42
4154.19
4154.61
4154.53
4154.31
4154.24
4154.31
4154.36
4154.33
4154.2
4154.06
4154.06
4154.2
4154.41
4154.59
4154.65
4154.63
4154.56
4154.49
4154.22
4153.83
4153.47
4153.2
4152.95
4152.63
4152.25
4151.84
4151.44
4151.3
4151.54
4151.86
4152.02
4152.02
4151.92
4151.78
4151.61
4151.43
4151.3
4151.27
4151.4
4151.44
4151.26
4151.11
4151.02
4150.87
4150.79
4150.77
4150.76
4150.64
4150.25
4149.55
4148.67
4147.75
4146.94
4146.39
4145.95
4145.44
4144.84
4143.9
4142.23
4139.57
4135.47
4129.22
4117.21
2592.77
2592.86
2593.11
2593.45
2593.72
2593.78
2593.68
2593.57
2593.55
2593.57
2593.56
2593.49
2593.39
2593.32
2593.3
2593.36
2593.5
2593.66
2593.78
2593.85
2593.85
2593.78
2593.59
2593.32
2593.05
2592.85
2592.73
2592.64
2592.53
2592.43
2592.38
2592.44
2592.56
2592.63
2592.67
2592.68
2592.7
2592.73
2592.75
2592.72
2592.66
2592.58
2592.48
2592.38
2592.3
2592.19
2592.05
2591.85
2591.64
2591.48
2591.38
2591.25
2591.01
2590.65
2590.28
2589.99
2589.79
2589.62
2589.4
2589.05
2588.49
2587.6
2586.27
2584.41
2581.84
2578.15
2572.5
1808.93
1808.97
1809.06
1809.18
1809.27
1809.28
1809.23
1809.18
1809.16
1809.15
1809.11
1809.05
1808.99
1808.95
1808.95
1808.99
1809.06
1809.16
1809.24
1809.3
1809.32
1809.29
1809.21
1809.09
1808.97
1808.86
1808.78
1808.71
1808.66
1808.63
1808.63
1808.68
1808.73
1808.77
1808.81
1808.84
1808.86
1808.86
1808.84
1808.82
1808.8
1808.75
1808.69
1808.65
1808.61
1808.53
1808.4
1808.24
1808.07
1807.93
1807.8
1807.65
1807.49
1807.33
1807.19
1807.09
1806.98
1806.8
1806.54
1806.19
1805.72
1805.05
1804.14
1802.93
1801.34
1799.14
1796.08
1344.29
1344.31
1344.33
1344.36
1344.39
1344.39
1344.38
1344.35
1344.33
1344.3
1344.27
1344.23
1344.19
1344.16
1344.16
1344.19
1344.24
1344.29
1344.34
1344.38
1344.39
1344.38
1344.34
1344.29
1344.24
1344.19
1344.14
1344.1
1344.08
1344.09
1344.11
1344.14
1344.18
1344.21
1344.22
1344.23
1344.23
1344.22
1344.21
1344.19
1344.17
1344.15
1344.13
1344.1
1344.06
1343.99
1343.9
1343.78
1343.67
1343.57
1343.47
1343.37
1343.28
1343.2
1343.14
1343.06
1342.95
1342.78
1342.55
1342.25
1341.88
1341.39
1340.75
1339.94
1338.88
1337.49
1335.66
1038.57
1038.57
1038.58
1038.6
1038.61
1038.61
1038.6
1038.58
1038.56
1038.54
1038.52
1038.49
1038.47
1038.46
1038.46
1038.47
1038.5
1038.52
1038.54
1038.56
1038.57
1038.56
1038.54
1038.51
1038.49
1038.48
1038.47
1038.46
1038.46
1038.46
1038.47
1038.49
1038.51
1038.52
1038.53
1038.52
1038.52
1038.51
1038.51
1038.5
1038.49
1038.47
1038.45
1038.42
1038.38
1038.33
1038.27
1038.2
1038.13
1038.07
1038
1037.94
1037.87
1037.82
1037.76
1037.69
1037.59
1037.45
1037.27
1037.04
1036.74
1036.38
1035.91
1035.33
1034.6
1033.67
1032.5
822.344
822.347
822.352
822.36
822.365
822.363
822.355
822.345
822.335
822.323
822.308
822.292
822.281
822.277
822.28
822.288
822.3
822.313
822.325
822.332
822.331
822.322
822.312
822.304
822.299
822.298
822.298
822.297
822.296
822.297
822.301
822.308
822.314
822.318
822.318
822.316
822.312
822.306
822.3
822.292
822.281
822.267
822.252
822.232
822.204
822.167
822.126
822.083
822.041
822
821.958
821.913
821.867
821.818
821.763
821.696
821.607
821.492
821.346
821.163
820.936
820.655
820.308
819.883
819.361
818.717
817.935
661.105
661.107
661.11
661.112
661.113
661.111
661.106
661.102
661.097
661.09
661.082
661.074
661.07
661.071
661.075
661.081
661.089
661.096
661.101
661.102
661.098
661.092
661.085
661.082
661.082
661.084
661.085
661.086
661.086
661.086
661.087
661.089
661.09
661.09
661.089
661.087
661.082
661.076
661.069
661.061
661.052
661.043
661.033
661.02
661
660.975
660.948
660.92
660.892
660.864
660.834
660.8
660.762
660.718
660.666
660.604
660.528
660.433
660.317
660.173
659.995
659.778
659.516
659.201
658.822
658.367
657.829
535.996
535.997
535.999
535.999
535.999
535.998
535.996
535.993
535.991
535.987
535.982
535.979
535.978
535.98
535.985
535.99
535.995
535.999
536
536
535.997
535.993
535.989
535.988
535.988
535.988
535.989
535.99
535.991
535.992
535.991
535.991
535.99
535.989
535.988
535.985
535.982
535.977
535.971
535.965
535.958
535.951
535.942
535.931
535.916
535.899
535.88
535.861
535.842
535.821
535.798
535.771
535.74
535.702
535.656
535.601
535.535
535.457
535.363
535.248
535.109
534.943
534.744
534.509
534.231
533.906
533.529
436.121
436.122
436.123
436.123
436.123
436.122
436.121
436.12
436.119
436.117
436.115
436.113
436.113
436.114
436.118
436.122
436.125
436.127
436.127
436.127
436.126
436.124
436.123
436.122
436.122
436.121
436.121
436.121
436.122
436.124
436.125
436.125
436.125
436.123
436.121
436.118
436.115
436.111
436.106
436.101
436.095
436.089
436.083
436.074
436.063
436.05
436.037
436.022
436.006
435.989
435.97
435.948
435.923
435.892
435.854
435.809
435.755
435.691
435.614
435.522
435.414
435.286
435.136
434.961
434.758
434.524
434.259
355.113
355.113
355.113
355.113
355.113
355.114
355.114
355.114
355.114
355.114
355.113
355.112
355.111
355.111
355.112
355.114
355.116
355.117
355.118
355.118
355.118
355.118
355.118
355.118
355.118
355.118
355.118
355.119
355.12
355.122
355.123
355.124
355.123
355.121
355.118
355.115
355.112
355.109
355.105
355.101
355.097
355.092
355.087
355.081
355.074
355.064
355.054
355.042
355.029
355.015
354.998
354.979
354.957
354.931
354.901
354.866
354.824
354.774
354.715
354.644
354.562
354.466
354.354
354.226
354.08
353.914
353.728
289.516
289.516
289.515
289.515
289.515
289.516
289.516
289.516
289.516
289.516
289.516
289.516
289.516
289.516
289.517
289.518
289.518
289.519
289.519
289.519
289.518
289.518
289.518
289.518
289.519
289.519
289.521
289.522
289.523
289.525
289.526
289.526
289.526
289.525
289.523
289.52
289.517
289.515
289.512
289.509
289.506
289.501
289.497
289.492
289.486
289.479
289.472
289.464
289.454
289.443
289.43
289.414
289.397
289.376
289.352
289.324
289.292
289.255
289.212
289.161
289.101
289.033
288.954
288.866
288.765
288.653
288.529
237.994
237.994
237.994
237.995
237.995
237.995
237.995
237.994
237.994
237.994
237.994
237.994
237.995
237.996
237.996
237.997
237.997
237.997
237.997
237.997
237.997
237.997
237.997
237.997
237.997
237.998
237.998
237.998
237.999
238
238.001
238.002
238.002
238.002
238.001
237.999
237.997
237.995
237.993
237.99
237.988
237.985
237.982
237.978
237.974
237.97
237.965
237.959
237.953
237.945
237.936
237.926
237.913
237.898
237.881
237.862
237.839
237.814
237.784
237.75
237.712
237.667
237.617
237.561
237.499
237.43
237.354
200.968
200.968
200.968
200.968
200.968
200.968
200.968
200.968
200.968
200.968
200.968
200.969
200.97
200.97
200.971
200.971
200.971
200.971
200.971
200.971
200.972
200.972
200.972
200.972
200.972
200.972
200.971
200.972
200.972
200.972
200.973
200.973
200.973
200.973
200.972
200.971
200.969
200.968
200.967
200.966
200.964
200.963
200.961
200.959
200.957
200.955
200.953
200.95
200.946
200.942
200.937
200.931
200.924
200.916
200.907
200.896
200.884
200.87
200.855
200.837
200.817
200.795
200.77
200.742
200.711
200.677
200.64
180.523
180.523
180.523
180.523
180.523
180.523
180.523
180.523
180.523
180.523
180.523
180.523
180.524
180.524
180.523
180.523
180.523
180.523
180.523
180.523
180.523
180.523
180.523
180.523
180.523
180.523
180.523
180.523
180.523
180.524
180.524
180.523
180.523
180.523
180.523
180.523
180.523
180.522
180.522
180.522
180.522
180.521
180.521
180.521
180.52
180.52
180.52
180.519
180.519
180.518
180.518
180.517
180.516
180.515
180.514
180.512
180.511
180.509
180.507
180.505
180.503
180.5
180.498
180.495
180.491
180.488
180.484
180.805
180.805
180.805
180.805
180.805
180.804
180.804
180.804
180.804
180.804
180.804
180.804
180.804
180.804
180.804
180.804
180.804
180.804
180.804
180.804
180.804
180.803
180.803
180.803
180.803
180.803
180.803
180.803
180.803
180.803
180.803
180.803
180.802
180.802
180.802
180.801
180.801
180.801
180.802
180.803
180.804
180.805
180.806
180.808
180.809
180.811
180.814
180.816
180.819
180.822
180.826
180.83
180.835
180.84
180.845
180.852
180.859
180.868
180.878
180.889
180.901
180.915
180.93
180.948
180.967
180.988
181.011
201.734
201.734
201.733
201.733
201.733
201.733
201.732
201.732
201.733
201.733
201.733
201.733
201.732
201.732
201.732
201.732
201.732
201.732
201.732
201.731
201.731
201.731
201.731
201.731
201.731
201.731
201.732
201.732
201.732
201.732
201.732
201.731
201.731
201.73
201.729
201.728
201.728
201.729
201.729
201.731
201.733
201.735
201.737
201.74
201.744
201.748
201.752
201.757
201.763
201.77
201.777
201.786
201.795
201.806
201.818
201.831
201.846
201.864
201.883
201.905
201.93
201.957
201.988
202.021
202.059
202.1
202.144
239.075
239.074
239.074
239.074
239.073
239.073
239.073
239.072
239.072
239.072
239.071
239.07
239.069
239.068
239.068
239.067
239.067
239.067
239.067
239.067
239.067
239.066
239.065
239.065
239.065
239.065
239.066
239.066
239.067
239.068
239.068
239.068
239.068
239.067
239.066
239.066
239.066
239.067
239.069
239.071
239.074
239.077
239.08
239.084
239.088
239.093
239.099
239.106
239.114
239.123
239.134
239.146
239.16
239.175
239.192
239.212
239.235
239.26
239.29
239.322
239.359
239.399
239.444
239.492
239.545
239.603
239.666
290.739
290.739
290.738
290.737
290.736
290.734
290.733
290.732
290.73
290.729
290.727
290.727
290.726
290.725
290.724
290.724
290.723
290.722
290.722
290.721
290.72
290.719
290.718
290.717
290.716
290.716
290.717
290.718
290.719
290.721
290.723
290.724
290.726
290.726
290.725
290.725
290.725
290.726
290.728
290.73
290.733
290.736
290.739
290.744
290.75
290.757
290.765
290.775
290.787
290.8
290.814
290.829
290.846
290.865
290.887
290.912
290.941
290.974
291.012
291.054
291.101
291.153
291.21
291.273
291.343
291.417
291.497
356.325
356.324
356.323
356.321
356.319
356.317
356.315
356.313
356.311
356.31
356.309
356.309
356.31
356.31
356.309
356.307
356.306
356.304
356.303
356.302
356.301
356.301
356.301
356.3
356.3
356.3
356.301
356.301
356.302
356.304
356.306
356.307
356.308
356.307
356.306
356.306
356.305
356.306
356.307
356.309
356.312
356.315
356.32
356.326
356.334
356.344
356.357
356.371
356.387
356.403
356.421
356.44
356.461
356.484
356.512
356.544
356.58
356.622
356.668
356.719
356.776
356.838
356.906
356.983
357.067
357.158
357.256
437.204
437.203
437.201
437.198
437.196
437.193
437.19
437.187
437.185
437.184
437.184
437.185
437.187
437.188
437.186
437.184
437.181
437.18
437.18
437.179
437.179
437.178
437.179
437.179
437.18
437.181
437.181
437.182
437.182
437.183
437.185
437.185
437.184
437.182
437.179
437.176
437.175
437.175
437.175
437.178
437.181
437.187
437.195
437.204
437.215
437.227
437.242
437.258
437.277
437.297
437.318
437.342
437.368
437.398
437.434
437.475
437.521
437.572
437.629
437.691
437.759
437.835
437.918
438.01
438.11
438.219
438.336
536.876
536.875
536.871
536.867
536.864
536.86
536.855
536.85
536.846
536.844
536.846
536.85
536.853
536.854
536.851
536.847
536.844
536.843
536.843
536.844
536.843
536.842
536.842
536.843
536.845
536.847
536.847
536.848
536.848
536.849
536.851
536.851
536.849
536.845
536.84
536.836
536.834
536.834
536.835
536.838
536.842
536.849
536.859
536.871
536.884
536.899
536.916
536.934
536.955
536.979
537.005
537.034
537.068
537.107
537.153
537.205
537.263
537.327
537.396
537.472
537.554
537.646
537.747
537.859
537.981
538.113
538.254
661.736
661.734
661.728
661.721
661.715
661.71
661.702
661.694
661.687
661.684
661.686
661.69
661.694
661.696
661.693
661.688
661.684
661.682
661.682
661.682
661.68
661.678
661.677
661.68
661.684
661.687
661.688
661.687
661.686
661.688
661.689
661.69
661.688
661.684
661.68
661.676
661.673
661.672
661.673
661.677
661.685
661.695
661.706
661.719
661.735
661.753
661.774
661.796
661.822
661.851
661.883
661.918
661.96
662.011
662.07
662.137
662.212
662.293
662.379
662.472
662.573
662.685
662.809
662.946
663.095
663.257
663.431
822.687
822.685
822.677
822.665
822.656
822.649
822.641
822.631
822.621
822.613
822.61
822.611
822.614
822.617
822.618
822.614
822.609
822.604
822.601
822.598
822.595
822.592
822.589
822.591
822.597
822.603
822.603
822.599
822.595
822.595
822.598
822.602
822.603
822.601
822.597
822.594
822.593
822.593
822.595
822.603
822.617
822.632
822.646
822.659
822.677
822.7
822.727
822.757
822.791
822.827
822.866
822.911
822.964
823.029
823.107
823.195
823.292
823.396
823.508
823.628
823.758
823.899
824.054
824.222
824.407
824.609
824.827
1038.59
1038.59
1038.58
1038.56
1038.54
1038.53
1038.53
1038.52
1038.5
1038.48
1038.47
1038.46
1038.47
1038.48
1038.49
1038.48
1038.47
1038.46
1038.46
1038.45
1038.45
1038.45
1038.45
1038.44
1038.45
1038.46
1038.45
1038.44
1038.42
1038.41
1038.42
1038.43
1038.43
1038.44
1038.44
1038.44
1038.45
1038.45
1038.45
1038.46
1038.49
1038.52
1038.55
1038.57
1038.59
1038.61
1038.65
1038.69
1038.74
1038.79
1038.84
1038.9
1038.96
1039.04
1039.14
1039.26
1039.39
1039.53
1039.68
1039.84
1040.01
1040.2
1040.4
1040.62
1040.85
1041.11
1041.39
1344
1344
1343.98
1343.95
1343.92
1343.9
1343.89
1343.88
1343.84
1343.81
1343.78
1343.79
1343.82
1343.85
1343.86
1343.84
1343.81
1343.78
1343.76
1343.76
1343.76
1343.77
1343.78
1343.77
1343.76
1343.77
1343.77
1343.75
1343.72
1343.69
1343.68
1343.68
1343.7
1343.71
1343.73
1343.75
1343.77
1343.76
1343.75
1343.76
1343.81
1343.88
1343.94
1343.98
1344.01
1344.04
1344.09
1344.14
1344.22
1344.29
1344.37
1344.43
1344.51
1344.61
1344.74
1344.9
1345.1
1345.31
1345.53
1345.74
1345.97
1346.23
1346.5
1346.79
1347.11
1347.45
1347.82
1808.37
1808.39
1808.35
1808.27
1808.21
1808.18
1808.16
1808.13
1808.08
1808.03
1808
1808.03
1808.09
1808.15
1808.15
1808.1
1808.04
1807.99
1807.95
1807.94
1807.94
1807.97
1807.98
1807.97
1807.95
1807.95
1807.99
1808.01
1807.99
1807.94
1807.9
1807.86
1807.85
1807.87
1807.92
1807.97
1808.01
1807.99
1807.93
1807.91
1807.96
1808.09
1808.22
1808.32
1808.39
1808.45
1808.53
1808.64
1808.78
1808.89
1808.98
1809.06
1809.16
1809.29
1809.47
1809.69
1809.97
1810.3
1810.65
1810.98
1811.31
1811.67
1812.05
1812.45
1812.89
1813.38
1813.91
2592.25
2592.31
2592.22
2591.99
2591.8
2591.71
2591.66
2591.63
2591.63
2591.64
2591.62
2591.58
2591.56
2591.6
2591.64
2591.62
2591.55
2591.47
2591.41
2591.38
2591.35
2591.37
2591.44
2591.49
2591.48
2591.46
2591.49
2591.54
2591.53
2591.46
2591.36
2591.27
2591.22
2591.26
2591.39
2591.56
2591.67
2591.63
2591.43
2591.27
2591.3
2591.53
2591.81
2592.06
2592.28
2592.43
2592.54
2592.68
2592.88
2593.08
2593.24
2593.35
2593.5
2593.74
2594.08
2594.49
2594.91
2595.35
2595.85
2596.36
2596.85
2597.35
2597.88
2598.48
2599.15
2599.91
2600.76
4151.96
4152.29
4152.42
4152.18
4151.82
4151.59
4151.46
4151.42
4151.41
4151.36
4151.25
4151.16
4151.11
4151.1
4151.05
4150.89
4150.58
4150.28
4150.08
4149.99
4150.06
4150.26
4150.49
4150.7
4150.82
4150.82
4150.75
4150.63
4150.47
4150.27
4150.09
4150
4149.99
4150.08
4150.39
4150.92
4151.49
4151.72
4151.41
4150.95
4150.78
4150.99
4151.46
4152
4152.57
4153.01
4153.11
4152.99
4152.98
4153.24
4153.6
4153.92
4154.26
4154.74
4155.38
4156.1
4156.83
4157.5
4158.15
4158.82
4159.54
4160.34
4161.27
4162.35
4163.57
4164.92
4166.41
8275.04
8275.83
8276.76
8277.09
8276.84
8276.33
8275.69
8274.94
8274.03
8273.06
8272.22
8271.47
8270.49
8269.34
8268.93
8268.7
8268.02
8267.12
8266.39
8266.08
8266.55
8267.57
8268.75
8269.82
8270.62
8270.98
8270.9
8270.58
8270.3
8270.28
8270.62
8271.31
8272.16
8272.86
8273.37
8274.22
8276.05
8278.35
8279.65
8279.66
8279.36
8278.74
8278
8277.65
8277.73
8277.81
8277.56
8277.05
8276.4
8275.87
8275.74
8275.85
8276.16
8276.68
8277.38
8278.23
8279.22
8280.26
8281.3
8282.45
8283.88
8285.62
8287.66
8289.92
8292.37
8294.98
8297.66
19504.4
19504.4
19504.4
19504.4
19504.4
19504.4
19504.4
19504.4
19504.4
19504.4
19504.4
19504.4
19504.4
19504.4
19504.4
19504.4
19504.4
19504.4
19504.4
19504.4
19504.4
19504.4
19504.4
19504.4
19504.4
19504.4
19504.4
19504.4
19504.4
19504.4
19504.4
19504.4
19504.4
19504.4
19504.4
19504.4
19504.4
19504.4
19504.4
19504.4
19504.4
19504.4
19504.4
19504.4
19504.4
19504.4
19504.4
19504.4
19504.4
19504.4
19504.4
19504.4
19504.4
19504.4
19504.4
19504.4
19504.4
19504.4
19504.4
19504.4
19504.4
19504.4
19504.4
19504.4
19504.4
19504.4
19504.4
15562.2
12426.7
10190.7
8608.41
7459.96
6594.45
5918.53
5375.3
4928.42
4553.61
4233.96
3957.53
3715.8
3502.42
3312.5
3142.28
2988.76
2849.61
2722.99
2607.32
2501.25
2403.63
2313.51
2230.16
2152.95
2081.3
2014.68
1952.64
1894.78
1840.72
1790.14
1742.76
1698.29
1656.5
1617.17
1580.09
1545.11
1512.05
1480.76
1451.09
1422.89
1396.04
1370.43
1345.95
1322.52
1300.05
1278.44
1257.65
1237.59
1218.21
1199.44
1181.25
1163.58
1146.4
1129.65
1113.31
1097.37
1081.79
1066.55
1051.6
1036.94
1022.57
1008.49
994.71
981.202
967.945
954.92
942.117
929.527
917.154
904.996
893.038
881.275
869.708
858.33
847.133
836.11
825.254
814.565
804.028
793.629
783.367
773.23
763.207
753.289
743.473
733.762
724.155
714.654
705.226
695.872
686.604
677.424
668.305
659.251
650.265
641.34
632.462
623.641
614.885
606.195
597.566
588.986
580.455
571.975
563.539
555.136
546.776
538.467
530.218
522.03
513.906
505.852
497.881
490.011
482.263
474.643
467.159
459.801
452.575
445.479
438.508
431.663
424.948
418.354
411.882
405.529
399.297
393.182
387.176
381.277
375.48
369.781
364.181
358.676
353.265
347.945
342.71
337.559
332.494
327.507
322.605
317.782
313.034
308.353
303.745
299.208
294.739
290.337
286
281.724
277.51
273.356
269.264
265.23
261.253
257.335
253.475
249.67
245.918
242.216
238.562
234.955
231.392
227.878
224.411
220.989
217.609
214.268
210.967
207.705
204.483
201.298
198.151
195.043
191.972
188.94
185.946
182.993
180.079
177.207
174.376
171.59
168.841
166.15
163.546
7819.64
7363.5
7082.88
6817.49
6486.45
6094.77
5680.9
5279.13
4908.44
4575.23
4278.65
4014.96
3779.84
3569.3
3379.87
3208.7
3053.44
2912.07
2782.95
2664.61
2555.83
2455.51
2362.76
2276.86
2197.16
2123.08
2054.1
1989.76
1929.64
1873.37
1820.61
1771.08
1724.51
1680.66
1639.3
1600.25
1563.32
1528.35
1495.21
1463.74
1433.79
1405.25
1378
1351.94
1326.98
1303.03
1280.01
1257.88
1236.55
1215.97
1196.11
1176.89
1158.27
1140.21
1122.69
1105.64
1089.05
1072.89
1057.14
1041.75
1026.72
1012.01
997.639
983.611
969.9
956.479
943.33
930.445
917.812
905.436
893.304
881.4
869.715
858.249
846.992
835.933
825.074
814.407
803.917
793.588
783.409
773.379
763.493
753.737
744.091
734.554
725.122
715.793
706.568
697.423
688.356
679.378
670.489
661.667
652.91
644.216
635.577
626.986
618.451
609.981
601.57
593.216
584.915
576.66
568.448
560.271
552.126
544.014
535.947
527.931
519.97
512.049
504.168
496.345
488.596
480.933
473.373
465.924
458.589
451.381
444.31
437.368
430.557
423.879
417.324
410.888
404.571
398.375
392.293
386.318
380.448
374.676
369.001
363.42
357.932
352.535
347.228
342.004
336.862
331.803
326.82
321.92
317.096
312.346
307.664
303.051
298.509
294.033
289.623
285.277
280.992
276.768
272.604
268.502
264.457
260.47
256.542
252.671
248.854
245.09
241.377
237.713
234.094
230.522
226.998
223.523
220.092
216.703
213.356
210.048
206.782
203.555
200.368
197.22
194.111
191.041
188.012
185.023
182.075
179.17
176.307
173.487
170.714
167.98
165.306
162.719
4102.91
4107.23
4129.26
4187.77
4266.91
4333.27
4358.19
4328.43
4246.31
4123.7
3975.33
3814.15
3649.61
3487.8
3332.26
3184.83
3046.28
2916.69
2795.78
2683.1
2578.11
2480.27
2389.04
2303.93
2224.47
2150.22
2080.77
2015.74
1954.74
1897.44
1843.53
1792.76
1744.87
1699.63
1656.85
1616.34
1577.92
1541.45
1506.8
1473.83
1442.4
1412.4
1383.72
1356.27
1329.94
1304.66
1280.36
1256.97
1234.43
1212.69
1191.71
1171.44
1151.83
1132.85
1114.47
1096.64
1079.31
1062.48
1046.12
1030.23
1014.74
999.65
984.932
970.594
956.617
942.984
929.679
916.684
903.989
891.592
879.471
867.607
855.991
844.617
833.476
822.559
811.866
801.386
791.099
780.988
771.047
761.273
751.663
742.196
732.851
723.625
714.504
705.486
696.57
687.744
679.004
670.355
661.792
653.303
644.881
636.511
628.191
619.925
611.714
603.561
595.455
587.4
579.399
571.442
563.522
555.634
547.78
539.958
532.176
524.442
516.756
509.095
501.458
493.862
486.317
478.818
471.39
464.038
456.772
449.611
442.584
435.698
428.945
422.328
415.832
409.455
403.193
397.049
391.016
385.087
379.26
373.528
367.888
362.339
356.879
351.508
346.224
341.02
335.896
330.851
325.882
320.99
316.174
311.428
306.749
302.139
297.597
293.119
288.707
284.357
280.068
275.838
271.669
267.561
263.509
259.515
255.58
251.702
247.877
244.105
240.385
236.714
233.088
229.51
225.98
222.5
219.064
215.671
212.321
209.011
205.744
202.517
199.331
196.186
193.082
190.019
186.997
184.018
181.082
178.19
175.342
172.54
169.786
167.073
164.422
161.86
2565.95
2580.45
2596.95
2623.83
2671.53
2743.57
2835.07
2934.59
3028.02
3102.41
3148.93
3163.95
3148.57
3107.2
3045.82
2970.52
2886.64
2798.33
2708.58
2619.48
2532.4
2448.2
2367.42
2290.25
2216.82
2147.14
2081.15
2018.69
1959.58
1903.6
1850.58
1800.33
1752.64
1707.36
1664.32
1623.36
1584.36
1547.17
1511.71
1477.84
1445.46
1414.48
1384.8
1356.34
1328.99
1302.7
1277.39
1253.01
1229.49
1206.8
1184.89
1163.71
1143.23
1123.42
1104.23
1085.64
1067.61
1050.12
1033.16
1016.71
1000.75
985.223
970.124
955.44
941.164
927.296
913.813
900.69
887.914
875.476
863.345
851.501
839.938
828.644
817.611
806.834
796.306
786.012
775.935
766.056
756.373
746.877
737.559
728.399
719.377
710.485
701.7
693.023
684.447
675.974
667.597
659.312
651.115
642.992
634.933
626.921
618.957
611.054
603.205
595.402
587.633
579.904
572.228
564.593
556.992
549.421
541.888
534.391
526.93
519.513
512.133
504.775
497.438
490.133
482.863
475.613
468.401
461.233
454.118
447.077
440.14
433.35
426.692
420.165
413.758
407.464
401.281
395.209
389.244
383.38
377.612
371.936
366.348
360.846
355.429
350.096
344.847
339.676
334.582
329.563
324.616
319.743
314.943
310.21
305.543
300.942
296.409
291.936
287.528
283.181
278.894
274.665
270.497
266.389
262.336
258.342
254.406
250.526
246.698
242.924
239.201
235.527
231.9
228.321
224.791
221.311
217.875
214.484
211.135
207.829
204.566
201.345
198.166
195.03
191.936
188.885
185.878
182.915
179.997
177.125
174.301
171.523
168.796
166.113
163.492
160.962
1792.39
1794.58
1803.71
1812.82
1825.71
1847.17
1880.75
1928.98
1991.88
2066.96
2149.37
2232.57
2309.57
2374.17
2421.95
2450.67
2460.28
2452.37
2429.65
2395.23
2352.17
2303.14
2250.34
2195.47
2139.82
2084.35
2029.74
1976.43
1924.7
1874.72
1826.57
1780.26
1735.74
1692.96
1651.88
1612.44
1574.55
1538.15
1503.19
1469.59
1437.31
1406.27
1376.41
1347.66
1319.96
1293.26
1267.49
1242.62
1218.59
1195.36
1172.89
1151.16
1130.13
1109.76
1090.04
1070.93
1052.41
1034.45
1017.04
1000.16
983.795
967.924
952.522
937.573
923.068
909.009
895.375
882.142
869.296
856.82
844.689
832.887
821.4
810.211
799.311
788.698
778.358
768.271
758.423
748.795
739.381
730.169
721.143
712.284
703.577
695.013
686.579
678.266
670.062
661.972
653.985
646.098
638.305
630.571
622.899
615.277
607.707
600.202
592.754
585.334
577.938
570.571
563.249
555.968
548.718
541.497
534.314
527.166
520.053
512.977
505.929
498.904
491.902
484.928
477.978
471.039
464.121
457.227
450.361
443.54
436.787
430.154
423.64
417.244
410.959
404.779
398.702
392.729
386.855
381.075
375.387
369.785
364.268
358.832
353.474
348.197
342.997
337.873
332.822
327.841
322.931
318.089
313.315
308.605
303.961
299.381
294.864
290.408
286.013
281.678
277.403
273.183
269.025
264.925
260.88
256.893
252.964
249.09
245.268
241.498
237.78
234.112
230.491
226.919
223.396
219.923
216.495
213.112
209.772
206.477
203.226
200.019
196.855
193.736
190.66
187.63
184.646
181.708
178.818
175.976
173.183
170.441
167.751
165.106
162.528
160.04
1333.46
1331.86
1335.36
1340.4
1345.15
1350.97
1359.46
1372.72
1392.66
1420.73
1457.84
1504.11
1558.71
1619.73
1684.28
1748.82
1809.58
1863.11
1906.76
1938.91
1958.99
1967.37
1965.12
1953.73
1934.86
1910.2
1881.22
1849.21
1815.19
1779.97
1744.15
1708.18
1672.37
1636.91
1601.99
1567.71
1534.15
1501.36
1469.39
1438.27
1408.03
1378.66
1350.16
1322.52
1295.71
1269.72
1244.52
1220.08
1196.38
1173.38
1151.08
1129.44
1108.46
1088.1
1068.35
1049.19
1030.61
1012.59
995.115
978.168
961.744
945.831
930.408
915.46
900.974
886.93
873.326
860.147
847.378
835
823.004
811.371
800.08
789.11
778.449
768.085
758.003
748.186
738.619
729.285
720.174
711.27
702.555
694.014
685.631
677.399
669.32
661.374
653.544
645.828
638.218
630.708
623.297
615.966
608.707
601.511
594.375
587.303
580.284
573.275
566.286
559.322
552.395
545.508
538.648
531.81
525.002
518.227
511.483
504.768
498.079
491.413
484.769
478.145
471.54
464.953
458.381
451.828
445.294
438.787
432.324
425.925
419.613
413.396
407.275
401.246
395.308
389.462
383.705
378.036
372.45
366.945
361.52
356.169
350.891
345.687
340.555
335.495
330.502
325.575
320.715
315.919
311.186
306.513
301.904
297.357
292.87
288.441
284.072
279.761
275.51
271.313
267.176
263.095
259.07
255.101
251.19
247.333
243.527
239.773
236.07
232.418
228.814
225.259
221.754
218.298
214.888
211.524
208.204
204.93
201.701
198.518
195.38
192.289
189.243
186.245
183.296
180.395
177.544
174.744
171.997
169.301
166.661
164.07
161.546
159.113
1031.12
1029.69
1029.65
1032.3
1035.35
1038.13
1040.83
1044.32
1049.5
1057.18
1068.2
1083.33
1103.3
1128.64
1159.59
1196
1237.26
1282.27
1329.49
1377.05
1422.96
1465.27
1502.34
1532.92
1556.33
1572.38
1581.33
1583.74
1580.43
1572.26
1560.08
1544.66
1526.66
1506.64
1485.07
1462.33
1438.76
1414.61
1390.1
1365.44
1340.79
1316.25
1291.93
1267.92
1244.27
1221.04
1198.26
1175.93
1154.09
1132.73
1111.86
1091.5
1071.64
1052.28
1033.43
1015.08
997.231
979.884
963.026
946.655
930.77
915.366
900.432
885.956
871.929
858.334
845.164
832.413
820.068
808.114
796.538
785.327
774.465
763.936
753.722
743.799
734.149
724.765
715.632
706.738
698.067
689.604
681.33
673.233
665.299
657.513
649.871
642.357
634.957
627.664
620.467
613.358
606.335
599.412
592.565
585.784
579.061
572.392
565.772
559.19
552.642
546.126
539.643
533.2
526.775
520.351
513.947
507.57
501.22
494.896
488.6
482.319
476.051
469.797
463.559
457.348
451.154
444.979
438.82
432.68
426.564
420.466
414.418
408.436
402.526
396.691
390.929
385.245
379.638
374.108
368.652
363.27
357.96
352.718
347.541
342.432
337.388
332.411
327.495
322.638
317.844
313.111
308.434
303.813
299.255
294.756
290.314
285.929
281.601
277.33
273.118
268.959
264.858
260.812
256.821
252.886
249.008
245.181
241.406
237.682
234.009
230.387
226.815
223.292
219.818
216.394
213.016
209.684
206.399
203.16
199.968
196.823
193.726
190.677
187.677
184.726
181.826
178.978
176.182
173.441
170.755
168.124
165.55
163.028
160.576
158.216
817.025
816.043
815.241
815.805
817.703
819.489
821.022
822.633
824.514
826.917
830.135
834.501
840.379
848.157
858.222
870.938
886.612
905.461
927.568
952.838
980.957
1011.39
1043.38
1076.02
1108.31
1139.24
1167.87
1193.46
1215.43
1233.47
1247.43
1257.35
1263.38
1265.79
1264.89
1261.01
1254.5
1245.73
1235.03
1222.72
1209.08
1194.35
1178.78
1162.58
1145.92
1128.93
1111.73
1094.42
1077.08
1059.77
1042.56
1025.49
1008.62
991.977
975.594
959.502
943.727
928.292
913.208
898.487
884.141
870.176
856.593
843.392
830.571
818.125
806.049
794.34
782.993
771.998
761.347
751.028
741.033
731.355
721.974
712.866
704.012
695.404
687.032
678.884
670.944
663.196
655.624
648.219
640.968
633.856
626.872
620
613.23
606.553
599.96
593.438
586.973
580.569
574.222
567.923
561.664
555.438
549.248
543.116
537.023
530.958
524.916
518.898
512.905
506.931
500.98
495.05
489.145
483.264
477.409
471.546
465.681
459.824
453.984
448.171
442.379
436.599
430.827
425.067
419.314
413.566
407.839
402.15
396.507
390.914
385.374
379.892
374.474
369.12
363.828
358.599
353.432
348.324
343.274
338.285
333.353
328.479
323.66
318.892
314.182
309.529
304.927
300.378
295.888
291.455
287.076
282.753
278.485
274.273
270.119
266.018
261.97
257.978
254.041
250.159
246.332
242.556
238.83
235.157
231.533
227.96
224.438
220.965
217.542
214.168
210.84
207.56
204.328
201.143
198.007
194.92
191.883
188.896
185.96
183.077
180.247
177.472
174.752
172.09
169.486
166.94
164.455
162.024
159.664
157.397
657.211
656.538
655.859
655.533
656.134
657.014
658.245
659.575
660.932
662.342
663.871
665.605
667.653
670.144
673.226
677.067
681.847
687.754
694.974
703.677
713.999
726.028
739.793
755.248
772.266
790.633
810.051
830.153