/*--------------------------------*- C++ -*----------------------------------*\
| =========                 |                                                 |
| \\      /  F ield         | OpenFOAM: The Open Source CFD Toolbox           |
|  \\    /   O peration     | Version:  5.x                                   |
|   \\  /    A nd           | Web:      www.OpenFOAM.org                      |
|    \\/     M anipulation  |                                                 |
\*---------------------------------------------------------------------------*/
/*   Windows 32 and 64 bit porting by blueCAPE: http://www.bluecape.com.pt   *\
|  Based on Windows porting (2.0.x v4) by Symscape: http://www.symscape.com   |
\*---------------------------------------------------------------------------*/
FoamFile
{
    version     2.0;
    format      ascii;
    class       volVectorField;
    location    "1.975";
    object      U;
}
// * * * * * * * * * * * * * * * * * * * * * * * * * * * * * * * * * * * * * //

dimensions      [0 1 -1 0 0 0 0];

internalField   nonuniform List<vector> 
12560
(
(3.91024 -7.68532e-005 0)
(3.91117 -7.65776e-005 0)
(3.91264 -5.22448e-005 0)
(3.9131 -4.29964e-005 0)
(3.91305 -3.43894e-005 0)
(3.91303 -1.75586e-005 0)
(3.9131 3.9073e-006 0)
(3.91309 2.05129e-005 0)
(3.91297 3.22607e-005 0)
(3.9128 4.03539e-005 0)
(3.9126 4.54326e-005 0)
(3.91239 4.80412e-005 0)
(3.91217 4.86798e-005 0)
(3.91194 4.75987e-005 0)
(3.91173 4.49126e-005 0)
(3.91153 4.06311e-005 0)
(3.91135 3.48349e-005 0)
(3.91121 2.78538e-005 0)
(3.91109 2.01447e-005 0)
(3.911 1.21403e-005 0)
(3.91095 4.71006e-006 0)
(3.91092 -7.4291e-007 0)
(3.91091 -3.62243e-006 0)
(3.91091 -4.66971e-006 0)
(3.91092 -5.04223e-006 0)
(3.91093 -5.85271e-006 0)
(3.91096 -7.42838e-006 0)
(3.911 -9.61809e-006 0)
(3.91106 -1.22189e-005 0)
(3.91113 -1.50642e-005 0)
(3.91122 -1.8101e-005 0)
(3.91133 -2.13877e-005 0)
(3.91147 -2.49537e-005 0)
(3.91162 -2.88617e-005 0)
(3.91179 -3.29537e-005 0)
(3.91198 -3.71456e-005 0)
(3.91219 -4.15363e-005 0)
(3.91242 -4.62067e-005 0)
(3.91268 -5.1037e-005 0)
(3.91296 -5.55694e-005 0)
(3.91327 -5.90072e-005 0)
(3.91359 -6.05666e-005 0)
(3.91392 -5.9848e-005 0)
(3.91426 -5.7071e-005 0)
(3.91458 -5.31641e-005 0)
(3.91491 -4.93157e-005 0)
(3.91523 -4.66066e-005 0)
(3.91557 -4.5994e-005 0)
(3.91593 -4.82136e-005 0)
(3.91633 -5.36211e-005 0)
(3.91678 -6.20299e-005 0)
(3.91731 -7.29321e-005 0)
(3.91791 -8.62498e-005 0)
(3.91863 -0.000102756 0)
(3.91947 -0.000123755 0)
(3.92048 -0.000150495 0)
(3.92169 -0.00018407 0)
(3.92314 -0.000225761 0)
(3.9249 -0.000277467 0)
(3.92703 -0.000341709 0)
(3.92962 -0.000423573 0)
(3.93282 -0.000526975 0)
(3.93678 -0.000685698 0)
(3.94219 -0.000880182 0)
(3.94808 -0.00135915 0)
(3.9642 -0.00259599 0)
(3.95758 -0.00184252 0)
(6.15236 -0.000113396 0)
(6.15273 -0.000107708 0)
(6.15349 -7.42481e-005 0)
(6.15367 -6.41309e-005 0)
(6.15354 -5.31075e-005 0)
(6.15347 -2.99798e-005 0)
(6.15349 -2.58326e-006 0)
(6.15353 1.72438e-005 0)
(6.15355 3.20553e-005 0)
(6.15355 4.38261e-005 0)
(6.15354 5.24721e-005 0)
(6.15353 5.786e-005 0)
(6.15352 6.03633e-005 0)
(6.1535 6.05606e-005 0)
(6.15347 5.89611e-005 0)
(6.15344 5.57492e-005 0)
(6.1534 5.09343e-005 0)
(6.15336 4.45961e-005 0)
(6.15331 3.70055e-005 0)
(6.15326 2.86775e-005 0)
(6.15321 2.03592e-005 0)
(6.15317 1.29681e-005 0)
(6.15313 7.02434e-006 0)
(6.1531 2.25257e-006 0)
(6.15309 -2.06932e-006 0)
(6.15308 -6.00152e-006 0)
(6.15308 -1.0505e-005 0)
(6.1531 -1.58526e-005 0)
(6.15312 -2.19454e-005 0)
(6.15316 -2.8525e-005 0)
(6.1532 -3.51427e-005 0)
(6.15326 -4.10614e-005 0)
(6.15332 -4.59588e-005 0)
(6.15338 -5.04337e-005 0)
(6.15344 -5.52388e-005 0)
(6.15351 -6.08246e-005 0)
(6.15358 -6.73684e-005 0)
(6.15367 -7.49173e-005 0)
(6.15376 -8.33282e-005 0)
(6.15387 -9.21556e-005 0)
(6.15399 -0.000100637 0)
(6.15413 -0.000107862 0)
(6.1543 -0.000113501 0)
(6.15448 -0.00011811 0)
(6.1547 -0.0001226 0)
(6.15496 -0.000127841 0)
(6.15525 -0.000134791 0)
(6.15558 -0.000144584 0)
(6.15595 -0.000158284 0)
(6.15638 -0.00017681 0)
(6.15686 -0.000200946 0)
(6.15741 -0.00023144 0)
(6.15804 -0.00026922 0)
(6.15878 -0.000315586 0)
(6.15964 -0.000372181 0)
(6.16064 -0.000440809 0)
(6.1618 -0.000523486 0)
(6.16316 -0.000623235 0)
(6.16474 -0.000745268 0)
(6.1666 -0.000897619 0)
(6.16883 -0.00109374 0)
(6.17152 -0.00135051 0)
(6.17488 -0.00173226 0)
(6.17916 -0.00221273 0)
(6.18489 -0.00350509 0)
(6.19267 -0.00430337 0)
(6.20298 -0.014684 0)
(7.08718 -0.000110427 0)
(7.08746 -9.65439e-005 0)
(7.08806 -6.58774e-005 0)
(7.08816 -5.95311e-005 0)
(7.08802 -4.94192e-005 0)
(7.08795 -2.50272e-005 0)
(7.08797 6.67179e-007 0)
(7.08801 1.88707e-005 0)
(7.08803 3.16583e-005 0)
(7.08805 4.19797e-005 0)
(7.08807 5.02299e-005 0)
(7.08809 5.59566e-005 0)
(7.08811 5.91257e-005 0)
(7.08813 5.9922e-005 0)
(7.08814 5.87058e-005 0)
(7.08815 5.60253e-005 0)
(7.08815 5.22429e-005 0)
(7.08815 4.74104e-005 0)
(7.08814 4.14263e-005 0)
(7.08813 3.45027e-005 0)
(7.08811 2.73201e-005 0)
(7.08809 2.0803e-005 0)
(7.08807 1.50783e-005 0)
(7.08805 9.36887e-006 0)
(7.08804 3.24589e-006 0)
(7.08803 -2.82984e-006 0)
(7.08802 -9.04829e-006 0)
(7.08801 -1.60093e-005 0)
(7.08801 -2.39405e-005 0)
(7.08801 -3.24906e-005 0)
(7.08802 -4.13077e-005 0)
(7.08803 -5.00276e-005 0)
(7.08805 -5.78541e-005 0)
(7.08807 -6.44433e-005 0)
(7.0881 -7.05603e-005 0)
(7.08813 -7.72832e-005 0)
(7.08817 -8.52744e-005 0)
(7.08822 -9.47076e-005 0)
(7.08827 -0.000105536 0)
(7.08832 -0.00011743 0)
(7.08839 -0.000129674 0)
(7.08848 -0.000141688 0)
(7.08859 -0.000153044 0)
(7.08873 -0.000164039 0)
(7.0889 -0.000176379 0)
(7.0891 -0.000191546 0)
(7.08934 -0.000210151 0)
(7.08962 -0.000233276 0)
(7.08995 -0.000262107 0)
(7.09033 -0.000297424 0)
(7.09076 -0.00034005 0)
(7.09126 -0.000391138 0)
(7.09183 -0.000452655 0)
(7.09249 -0.000527166 0)
(7.09326 -0.000617189 0)
(7.09413 -0.000725265 0)
(7.09514 -0.000854804 0)
(7.09632 -0.00101079 0)
(7.09768 -0.00120097 0)
(7.09929 -0.00143797 0)
(7.10121 -0.00174164 0)
(7.10354 -0.00214302 0)
(7.1064 -0.0027103 0)
(7.11001 -0.00353146 0)
(7.1146 -0.00504096 0)
(7.12047 -0.00752116 0)
(7.127 -0.0137417 0)
(7.69056 -9.43385e-005 0)
(7.69083 -8.50982e-005 0)
(7.69138 -6.29514e-005 0)
(7.69146 -5.56597e-005 0)
(7.69133 -4.50659e-005 0)
(7.69127 -2.45256e-005 0)
(7.69129 -4.33619e-006 0)
(7.69131 1.16093e-005 0)
(7.69133 2.37714e-005 0)
(7.69134 3.39893e-005 0)
(7.69135 4.22891e-005 0)
(7.69137 4.81247e-005 0)
(7.69138 5.15396e-005 0)
(7.69139 5.30532e-005 0)
(7.69141 5.31274e-005 0)
(7.69142 5.19323e-005 0)
(7.69142 4.95109e-005 0)
(7.69143 4.58606e-005 0)
(7.69144 4.10707e-005 0)
(7.69144 3.54591e-005 0)
(7.69144 2.95539e-005 0)
(7.69144 2.37881e-005 0)
(7.69144 1.81681e-005 0)
(7.69143 1.24568e-005 0)
(7.69142 6.53631e-006 0)
(7.69141 7.48079e-008 0)
(7.6914 -6.89672e-006 0)
(7.69139 -1.4749e-005 0)
(7.69138 -2.36065e-005 0)
(7.69137 -3.32078e-005 0)
(7.69137 -4.29543e-005 0)
(7.69136 -5.20699e-005 0)
(7.69137 -6.01527e-005 0)
(7.69138 -6.77294e-005 0)
(7.6914 -7.57384e-005 0)
(7.69143 -8.47827e-005 0)
(7.69146 -9.51654e-005 0)
(7.69149 -0.000107042 0)
(7.69154 -0.00012047 0)
(7.69159 -0.000135412 0)
(7.69165 -0.000151681 0)
(7.69173 -0.000169052 0)
(7.69183 -0.000187677 0)
(7.69195 -0.000208188 0)
(7.69209 -0.000231253 0)
(7.69226 -0.00025758 0)
(7.69246 -0.000288251 0)
(7.6927 -0.000324629 0)
(7.69298 -0.000368151 0)
(7.6933 -0.000420189 0)
(7.69368 -0.00048211 0)
(7.69413 -0.000555644 0)
(7.69463 -0.000643074 0)
(7.69522 -0.000747064 0)
(7.69589 -0.000870541 0)
(7.69667 -0.00101693 0)
(7.69756 -0.00119101 0)
(7.6986 -0.00140033 0)
(7.69982 -0.00165644 0)
(7.70126 -0.00197645 0)
(7.70298 -0.00238667 0)
(7.70504 -0.00292837 0)
(7.70755 -0.00368338 0)
(7.71065 -0.00476823 0)
(7.71442 -0.00659367 0)
(7.71896 -0.00941355 0)
(7.72335 -0.015157 0)
(8.15063 -8.20119e-005 0)
(8.1509 -7.65863e-005 0)
(8.15141 -6.23189e-005 0)
(8.15148 -5.33845e-005 0)
(8.15136 -4.19619e-005 0)
(8.15129 -2.41559e-005 0)
(8.1513 -5.57199e-006 0)
(8.15132 9.71402e-006 0)
(8.15133 2.15382e-005 0)
(8.15133 3.11639e-005 0)
(8.15133 3.89043e-005 0)
(8.15134 4.45759e-005 0)
(8.15134 4.82924e-005 0)
(8.15135 5.03375e-005 0)
(8.15135 5.08386e-005 0)
(8.15136 4.98296e-005 0)
(8.15136 4.73931e-005 0)
(8.15137 4.36744e-005 0)
(8.15137 3.88889e-005 0)
(8.15138 3.34499e-005 0)
(8.15139 2.78573e-005 0)
(8.15139 2.25431e-005 0)
(8.1514 1.77209e-005 0)
(8.1514 1.32082e-005 0)
(8.15139 8.53905e-006 0)
(8.15139 3.14494e-006 0)
(8.15138 -3.40285e-006 0)
(8.15138 -1.12791e-005 0)
(8.15137 -2.04426e-005 0)
(8.15137 -3.05317e-005 0)
(8.15137 -4.10604e-005 0)
(8.15137 -5.17208e-005 0)
(8.15138 -6.23745e-005 0)
(8.15139 -7.29748e-005 0)
(8.15141 -8.36605e-005 0)
(8.15144 -9.48079e-005 0)
(8.15146 -0.000107007 0)
(8.1515 -0.000120937 0)
(8.15154 -0.000137149 0)
(8.15159 -0.000155853 0)
(8.15165 -0.000176915 0)
(8.15173 -0.000200273 0)
(8.15182 -0.000226056 0)
(8.15193 -0.000254383 0)
(8.15206 -0.00028579 0)
(8.15221 -0.000321525 0)
(8.15239 -0.000363138 0)
(8.1526 -0.000412291 0)
(8.15285 -0.000470659 0)
(8.15314 -0.000539797 0)
(8.15347 -0.000621378 0)
(8.15386 -0.000717425 0)
(8.15431 -0.000830326 0)
(8.15484 -0.000962934 0)
(8.15544 -0.00111891 0)
(8.15614 -0.00130322 0)
(8.15695 -0.00152291 0)
(8.15789 -0.0017881 0)
(8.159 -0.00211306 0)
(8.1603 -0.00251825 0)
(8.16184 -0.00303471 0)
(8.16368 -0.00371057 0)
(8.16587 -0.00463368 0)
(8.16852 -0.00593723 0)
(8.17163 -0.00795752 0)
(8.17509 -0.0109743 0)
(8.17818 -0.0160002 0)
(8.52641 -7.59884e-005 0)
(8.52668 -7.07889e-005 0)
(8.52717 -6.17618e-005 0)
(8.52723 -5.04128e-005 0)
(8.52711 -3.65834e-005 0)
(8.52705 -1.99939e-005 0)
(8.52706 -3.50891e-006 0)
(8.52707 1.02899e-005 0)
(8.52707 2.1253e-005 0)
(8.52707 3.02581e-005 0)
(8.52707 3.77472e-005 0)
(8.52707 4.3672e-005 0)
(8.52707 4.79066e-005 0)
(8.52707 5.03502e-005 0)
(8.52706 5.09123e-005 0)
(8.52706 4.95892e-005 0)
(8.52706 4.65252e-005 0)
(8.52706 4.20245e-005 0)
(8.52706 3.6545e-005 0)
(8.52707 3.06885e-005 0)
(8.52707 2.50713e-005 0)
(8.52708 2.02209e-005 0)
(8.52708 1.634e-005 0)
(8.52709 1.30302e-005 0)
(8.52708 9.45874e-006 0)
(8.52708 4.74005e-006 0)
(8.52708 -1.70919e-006 0)
(8.52707 -1.002e-005 0)
(8.52707 -2.00304e-005 0)
(8.52707 -3.13107e-005 0)
(8.52708 -4.33832e-005 0)
(8.52709 -5.58678e-005 0)
(8.5271 -6.83601e-005 0)
(8.52712 -8.05643e-005 0)
(8.52715 -9.267e-005 0)
(8.52717 -0.000105382 0)
(8.5272 -0.000119628 0)
(8.52724 -0.000136233 0)
(8.52728 -0.000155753 0)
(8.52733 -0.000178452 0)
(8.52739 -0.00020436 0)
(8.52746 -0.000233436 0)
(8.52755 -0.000265669 0)
(8.52765 -0.000301241 0)
(8.52778 -0.000340948 0)
(8.52792 -0.000386213 0)
(8.52809 -0.000438681 0)
(8.52829 -0.000500177 0)
(8.52851 -0.000572761 0)
(8.52877 -0.000658564 0)
(8.52907 -0.000759712 0)
(8.52943 -0.000878362 0)
(8.52984 -0.00101699 0)
(8.53031 -0.00117891 0)
(8.53087 -0.00136877 0)
(8.5315 -0.00159288 0)
(8.53224 -0.00185989 0)
(8.5331 -0.00218159 0)
(8.5341 -0.00257428 0)
(8.53528 -0.00306129 0)
(8.53665 -0.00367742 0)
(8.53828 -0.00447528 0)
(8.54019 -0.00554362 0)
(8.54244 -0.00701537 0)
(8.54496 -0.00915343 0)
(8.54759 -0.0121943 0)
(8.54976 -0.0165952 0)
(8.84704 -7.68914e-005 0)
(8.84731 -6.90805e-005 0)
(8.84779 -6.21449e-005 0)
(8.84785 -4.79902e-005 0)
(8.84774 -3.11475e-005 0)
(8.84768 -1.513e-005 0)
(8.84769 -9.00866e-007 0)
(8.8477 1.11568e-005 0)
(8.8477 2.13012e-005 0)
(8.8477 3.01472e-005 0)
(8.8477 3.80525e-005 0)
(8.8477 4.48487e-005 0)
(8.84769 5.00679e-005 0)
(8.84769 5.32179e-005 0)
(8.84768 5.39464e-005 0)
(8.84767 5.21655e-005 0)
(8.84766 4.81232e-005 0)
(8.84766 4.23726e-005 0)
(8.84766 3.5673e-005 0)
(8.84766 2.89185e-005 0)
(8.84766 2.29875e-005 0)
(8.84767 1.85036e-005 0)
(8.84767 1.55207e-005 0)
(8.84767 1.33383e-005 0)
(8.84767 1.07463e-005 0)
(8.84766 6.53205e-006 0)
(8.84765 -6.25251e-008 0)
(8.84765 -9.26398e-006 0)
(8.84765 -2.07974e-005 0)
(8.84765 -3.40722e-005 0)
(8.84766 -4.8358e-005 0)
(8.84768 -6.2923e-005 0)
(8.8477 -7.71404e-005 0)
(8.84772 -9.07612e-005 0)
(8.84775 -0.000104174 0)
(8.84778 -0.000118313 0)
(8.84781 -0.000134338 0)
(8.84784 -0.000153326 0)
(8.84788 -0.000176085 0)
(8.84793 -0.000203038 0)
(8.84799 -0.00023422 0)
(8.84806 -0.000269457 0)
(8.84814 -0.000308625 0)
(8.84825 -0.000351917 0)
(8.84837 -0.000400126 0)
(8.84851 -0.0004547 0)
(8.84866 -0.000517557 0)
(8.84885 -0.000591028 0)
(8.84905 -0.000677746 0)
(8.84929 -0.000780341 0)
(8.84957 -0.000901239 0)
(8.8499 -0.00104282 0)
(8.85028 -0.00120788 0)
(8.85072 -0.00140017 0)
(8.85123 -0.00162494 0)
(8.85182 -0.00188936 0)
(8.8525 -0.00220319 0)
(8.85328 -0.00257979 0)
(8.85419 -0.00303763 0)
(8.85524 -0.00360256 0)
(8.85646 -0.00431172 0)
(8.85788 -0.00521918 0)
(8.85953 -0.00640926 0)
(8.8614 -0.00800249 0)
(8.86342 -0.0101936 0)
(8.86538 -0.0131518 0)
(8.86686 -0.0170482 0)
(9.12828 -8.41945e-005 0)
(9.12855 -7.13181e-005 0)
(9.12902 -6.307e-005 0)
(9.12908 -4.57791e-005 0)
(9.12897 -2.60927e-005 0)
(9.12892 -1.04326e-005 0)
(9.12892 1.44655e-006 0)
(9.12893 1.1378e-005 0)
(9.12894 2.04224e-005 0)
(9.12894 2.91696e-005 0)
(9.12894 3.79017e-005 0)
(9.12894 4.62923e-005 0)
(9.12894 5.34178e-005 0)
(9.12893 5.81459e-005 0)
(9.12892 5.95922e-005 0)
(9.1289 5.7436e-005 0)
(9.12889 5.20362e-005 0)
(9.12888 4.434e-005 0)
(9.12888 3.56666e-005 0)
(9.12888 2.74698e-005 0)
(9.12889 2.10295e-005 0)
(9.12889 1.70807e-005 0)
(9.1289 1.54744e-005 0)
(9.12889 1.50883e-005 0)
(9.12889 1.4156e-005 0)
(9.12888 1.08852e-005 0)
(9.12887 4.05172e-006 0)
(9.12886 -6.75372e-006 0)
(9.12885 -2.1064e-005 0)
(9.12885 -3.77848e-005 0)
(9.12886 -5.55362e-005 0)
(9.12888 -7.30105e-005 0)
(9.12891 -8.93035e-005 0)
(9.12893 -0.000104212 0)
(9.12896 -0.000118378 0)
(9.12899 -0.000133149 0)
(9.12902 -0.00015021 0)
(9.12905 -0.000171184 0)
(9.12909 -0.000197276 0)
(9.12913 -0.00022905 0)
(9.12919 -0.000266396 0)
(9.12926 -0.000308791 0)
(9.12934 -0.000355727 0)
(9.12944 -0.00040712 0)
(9.12956 -0.000463672 0)
(9.12969 -0.000527055 0)
(9.12984 -0.000599788 0)
(9.13001 -0.000684972 0)
(9.1302 -0.000785931 0)
(9.13042 -0.000905799 0)
(9.13068 -0.00104732 0)
(9.13098 -0.00121302 0)
(9.13134 -0.00140576 0)
(9.13174 -0.00162934 0)
(9.13222 -0.00188921 0)
(9.13276 -0.00219316 0)
(9.13338 -0.00255207 0)
(9.13409 -0.00298096 0)
(9.1349 -0.00350022 0)
(9.13584 -0.00413745 0)
(9.13691 -0.00493052 0)
(9.13813 -0.00593199 0)
(9.13951 -0.00721726 0)
(9.14103 -0.008887 0)
(9.14261 -0.0110771 0)
(9.14404 -0.0138926 0)
(9.14501 -0.0173661 0)
(9.37902 -9.69773e-005 0)
(9.37928 -7.71916e-005 0)
(9.37974 -6.43815e-005 0)
(9.37981 -4.31012e-005 0)
(9.3797 -2.05936e-005 0)
(9.37964 -5.07072e-006 0)
(9.37965 4.2504e-006 0)
(9.37966 1.11095e-005 0)
(9.37966 1.78917e-005 0)
(9.37967 2.5781e-005 0)
(9.37967 3.53135e-005 0)
(9.37968 4.60327e-005 0)
(9.37968 5.63581e-005 0)
(9.37968 6.41469e-005 0)
(9.37966 6.75398e-005 0)
(9.37964 6.56177e-005 0)
(9.37963 5.86865e-005 0)
(9.37962 4.81763e-005 0)
(9.37961 3.62614e-005 0)
(9.37961 2.53649e-005 0)
(9.37962 1.75847e-005 0)
(9.37963 1.40812e-005 0)
(9.37964 1.46041e-005 0)
(9.37964 1.74153e-005 0)
(9.37963 1.97567e-005 0)
(9.37962 1.87316e-005 0)
(9.3796 1.22229e-005 0)
(9.37958 -4.9747e-007 0)
(9.37957 -1.87043e-005 0)
(9.37957 -4.05222e-005 0)
(9.37957 -6.35207e-005 0)
(9.37959 -8.54107e-005 0)
(9.37962 -0.000104657 0)
(9.37965 -0.000120906 0)
(9.37968 -0.000135123 0)
(9.37971 -0.000149381 0)
(9.37974 -0.000166327 0)
(9.37977 -0.000188518 0)
(9.3798 -0.00021781 0)
(9.37983 -0.000254966 0)
(9.37988 -0.000299604 0)
(9.37994 -0.000350565 0)
(9.38002 -0.00040655 0)
(9.38012 -0.000466833 0)
(9.38023 -0.000531877 0)
(9.38036 -0.000603659 0)
(9.3805 -0.000685511 0)
(9.38066 -0.000781616 0)
(9.38084 -0.000896353 0)
(9.38104 -0.00103366 0)
(9.38127 -0.00119668 0)
(9.38155 -0.00138792 0)
(9.38187 -0.00160987 0)
(9.38224 -0.00186584 0)
(9.38268 -0.00216105 0)
(9.38318 -0.00250355 0)
(9.38374 -0.00290515 0)
(9.38438 -0.0033823 0)
(9.3851 -0.00395698 0)
(9.38591 -0.00465785 0)
(9.38683 -0.00552218 0)
(9.38786 -0.00659849 0)
(9.38898 -0.00795039 0)
(9.39018 -0.0096556 0)
(9.39135 -0.0118021 0)
(9.39234 -0.0144439 0)
(9.39292 -0.0175513 0)
(9.60415 -0.000115674 0)
(9.60441 -8.74006e-005 0)
(9.60487 -6.66588e-005 0)
(9.60494 -3.92851e-005 0)
(9.60483 -1.29445e-005 0)
(9.60477 3.05368e-006 0)
(9.60476 9.52239e-006 0)
(9.60477 1.18117e-005 0)
(9.60477 1.42275e-005 0)
(9.60478 1.94277e-005 0)
(9.60479 2.88335e-005 0)
(9.6048 4.21359e-005 0)
(9.60481 5.7035e-005 0)
(9.60481 6.99709e-005 0)
(9.6048 7.74489e-005 0)
(9.60478 7.72529e-005 0)
(9.60476 6.91428e-005 0)
(9.60474 5.49064e-005 0)
(9.60473 3.78576e-005 0)
(9.60473 2.19907e-005 0)
(9.60474 1.09421e-005 0)
(9.60475 6.92401e-006 0)
(9.60477 9.93212e-006 0)
(9.60478 1.75691e-005 0)
(9.60478 2.56629e-005 0)
(9.60476 2.9529e-005 0)
(9.60474 2.54321e-005 0)
(9.60472 1.16947e-005 0)
(9.60469 -1.09312e-005 0)
(9.60468 -3.9617e-005 0)
(9.60468 -7.03778e-005 0)
(9.6047 -9.92414e-005 0)
(9.60472 -0.000123343 0)
(9.60476 -0.000141704 0)
(9.6048 -0.000155505 0)
(9.60483 -0.000167791 0)
(9.60486 -0.000182678 0)
(9.60488 -0.000204281 0)
(9.6049 -0.000235675 0)
(9.60493 -0.000278175 0)
(9.60497 -0.000331164 0)
(9.60502 -0.000392551 0)
(9.60509 -0.000459713 0)
(9.60518 -0.000530666 0)
(9.60529 -0.000605129 0)
(9.60541 -0.000685132 0)
(9.60555 -0.000774919 0)
(9.60569 -0.000880205 0)
(9.60585 -0.00100708 0)
(9.60603 -0.00116089 0)
(9.60624 -0.00134553 0)
(9.60648 -0.00156345 0)
(9.60676 -0.0018163 0)
(9.6071 -0.00210626 0)
(9.6075 -0.00243747 0)
(9.60795 -0.00281752 0)
(9.60845 -0.00325856 0)
(9.60902 -0.00377809 0)
(9.60964 -0.00439937 0)
(9.61033 -0.00515165 0)
(9.61109 -0.00607072 0)
(9.61192 -0.00719956 0)
(9.61279 -0.00858887 0)
(9.61368 -0.0102938 0)
(9.61451 -0.0123652 0)
(9.61514 -0.0148208 0)
(9.61541 -0.0176076 0)
(9.8059 -0.000141774 0)
(9.80615 -0.000103879 0)
(9.80661 -7.18752e-005 0)
(9.80668 -3.50273e-005 0)
(9.80658 -2.2804e-006 0)
(9.80651 1.58928e-005 0)
(9.8065 1.98046e-005 0)
(9.8065 1.60485e-005 0)
(9.8065 1.13192e-005 0)
(9.8065 1.07721e-005 0)
(9.80652 1.77378e-005 0)
(9.80654 3.27905e-005 0)
(9.80655 5.31857e-005 0)
(9.80656 7.36706e-005 0)
(9.80655 8.83444e-005 0)
(9.80653 9.26739e-005 0)
(9.8065 8.49413e-005 0)
(9.80648 6.67581e-005 0)
(9.80646 4.26085e-005 0)
(9.80646 1.86326e-005 0)
(9.80646 9.40028e-007 0)
(9.80648 -6.16567e-006 0)
(9.80651 -1.60801e-006 0)
(9.80653 1.19179e-005 0)
(9.80654 2.85886e-005 0)
(9.80653 4.11668e-005 0)
(9.80651 4.3219e-005 0)
(9.80648 3.10556e-005 0)
(9.80645 4.73228e-006 0)
(9.80642 -3.2132e-005 0)
(9.80641 -7.35653e-005 0)
(9.80642 -0.000113038 0)
(9.80645 -0.000145313 0)
(9.80648 -0.000167873 0)
(9.80653 -0.000181596 0)
(9.80657 -0.0001905 0)
(9.8066 -0.000200657 0)
(9.80662 -0.000218576 0)
(9.80664 -0.000249494 0)
(9.80665 -0.000296062 0)
(9.80668 -0.000357808 0)
(9.80672 -0.000431561 0)
(9.80678 -0.00051275 0)
(9.80686 -0.000597225 0)
(9.80696 -0.000683048 0)
(9.80708 -0.000771679 0)
(9.8072 -0.000868122 0)
(9.80734 -0.000980003 0)
(9.80748 -0.00111591 0)
(9.80763 -0.00128353 0)
(9.8078 -0.00148828 0)
(9.80801 -0.00173286 0)
(9.80825 -0.00201788 0)
(9.80854 -0.00234356 0)
(9.80889 -0.00271188 0)
(9.80928 -0.00312869 0)
(9.80972 -0.00360542 0)
(9.81021 -0.00415989 0)
(9.81074 -0.0048162 0)
(9.8113 -0.005604 0)
(9.8119 -0.00655738 0)
(9.81253 -0.00771358 0)
(9.81316 -0.0091111 0)
(9.81377 -0.0107853 0)
(9.81428 -0.0127599 0)
(9.81461 -0.0150287 0)
(9.81464 -0.0175336 0)
(9.98443 -0.000176221 0)
(9.98469 -0.000128944 0)
(9.98514 -8.31524e-005 0)
(9.98523 -3.28633e-005 0)
(9.98513 1.0359e-005 0)
(9.98506 3.4029e-005 0)
(9.98504 3.71001e-005 0)
(9.98504 2.67361e-005 0)
(9.98503 1.21499e-005 0)
(9.98503 1.92516e-006 0)
(9.98504 2.61428e-006 0)
(9.98506 1.69144e-005 0)
(9.98509 4.24587e-005 0)
(9.9851 7.24419e-005 0)
(9.9851 9.79463e-005 0)
(9.98508 0.000110946 0)
(9.98505 0.000106891 0)
(9.98502 8.61189e-005 0)
(9.985 5.37858e-005 0)
(9.98498 1.84367e-005 0)
(9.98499 -1.03958e-005 0)
(9.98501 -2.49705e-005 0)
(9.98504 -2.17879e-005 0)
(9.98507 -2.91355e-006 0)
(9.98509 2.44023e-005 0)
(9.98509 4.98195e-005 0)
(9.98507 6.30477e-005 0)
(9.98504 5.69609e-005 0)
(9.98501 2.9646e-005 0)
(9.98497 -1.5217e-005 0)
(9.98495 -6.96458e-005 0)
(9.98495 -0.000123809 0)
(9.98497 -0.00016887 0)
(9.98501 -0.000199443 0)
(9.98505 -0.000215036 0)
(9.9851 -0.000220145 0)
(9.98514 -0.000222999 0)
(9.98516 -0.00023331 0)
(9.98518 -0.000259656 0)
(9.98518 -0.000307221 0)
(9.9852 -0.000376538 0)
(9.98522 -0.000463637 0)
(9.98526 -0.000561612 0)
(9.98533 -0.000663191 0)
(9.98542 -0.000763547 0)
(9.98553 -0.000862438 0)
(9.98564 -0.000964949 0)
(9.98577 -0.00108061 0)
(9.98589 -0.00122118 0)
(9.98602 -0.00139784 0)
(9.98616 -0.00161873 0)
(9.98632 -0.00188765 0)
(9.98652 -0.00220438 0)
(9.98675 -0.00256665 0)
(9.98704 -0.00297301 0)
(9.98736 -0.00342599 0)
(9.98773 -0.00393466 0)
(9.98814 -0.00451583 0)
(9.98856 -0.00519373 0)
(9.989 -0.00599826 0)
(9.98944 -0.00696229 0)
(9.98987 -0.00811841 0)
(9.99028 -0.00949531 0)
(9.99063 -0.011113 0)
(9.99087 -0.0129762 0)
(9.99093 -0.0150644 0)
(9.99075 -0.0173212 0)
(10.1382 -0.000217641 0)
(10.1384 -0.00016353 0)
(10.1389 -0.000103304 0)
(10.139 -3.63381e-005 0)
(10.1389 2.19643e-005 0)
(10.1388 5.57927e-005 0)
(10.1388 6.15002e-005 0)
(10.1388 4.57405e-005 0)
(10.1388 1.98052e-005 0)
(10.1388 -3.80265e-006 0)
(10.1388 -1.40802e-005 0)
(10.1388 -4.69974e-006 0)
(10.1388 2.36924e-005 0)
(10.1388 6.35154e-005 0)
(10.1388 0.000102768 0)
(10.1388 0.000129014 0)
(10.1388 0.000133403 0)
(10.1388 0.00011345 0)
(10.1387 7.38508e-005 0)
(10.1387 2.51959e-005 0)
(10.1387 -1.90297e-005 0)
(10.1387 -4.6403e-005 0)
(10.1388 -4.94136e-005 0)
(10.1388 -2.80334e-005 0)
(10.1388 9.95646e-006 0)
(10.1388 5.11521e-005 0)
(10.1388 8.05793e-005 0)
(10.1388 8.62433e-005 0)
(10.1388 6.2649e-005 0)
(10.1387 1.22202e-005 0)
(10.1387 -5.56871e-005 0)
(10.1387 -0.000127713 0)
(10.1387 -0.000190413 0)
(10.1387 -0.000234053 0)
(10.1388 -0.000255286 0)
(10.1388 -0.00025801 0)
(10.1389 -0.000252239 0)
(10.1389 -0.00025131 0)
(10.1389 -0.000268211 0)
(10.1389 -0.000312048 0)
(10.1389 -0.000385667 0)
(10.1389 -0.000485147 0)
(10.139 -0.00060138 0)
(10.139 -0.00072333 0)
(10.1391 -0.00084203 0)
(10.1392 -0.000954054 0)
(10.1393 -0.00106334 0)
(10.1394 -0.00118071 0)
(10.1395 -0.00132133 0)
(10.1396 -0.00150081 0)
(10.1397 -0.00173136 0)
(10.1398 -0.0020192 0)
(10.14 -0.0023641 0)
(10.1401 -0.00276125 0)
(10.1403 -0.00320489 0)
(10.1406 -0.00369262 0)
(10.1409 -0.00422923 0)
(10.1412 -0.00482875 0)
(10.1415 -0.00551433 0)
(10.1418 -0.00631578 0)
(10.1421 -0.00726547 0)
(10.1424 -0.00839331 0)
(10.1426 -0.00972162 0)
(10.1427 -0.0112602 0)
(10.1427 -0.0130019 0)
(10.1425 -0.0149181 0)
(10.1421 -0.0169559 0)
(10.2638 -0.00026081 0)
(10.264 -0.000204631 0)
(10.2645 -0.000132022 0)
(10.2646 -4.77039e-005 0)
(10.2645 2.86534e-005 0)
(10.2644 7.69368e-005 0)
(10.2644 8.96638e-005 0)
(10.2644 7.16374e-005 0)
(10.2644 3.52011e-005 0)
(10.2644 -3.5003e-006 0)
(10.2644 -2.84588e-005 0)
(10.2644 -2.85208e-005 0)
(10.2644 -1.16275e-006 0)
(10.2644 4.65205e-005 0)
(10.2645 0.000100123 0)
(10.2645 0.000142653 0)
(10.2644 0.000160009 0)
(10.2644 0.000145445 0)
(10.2644 0.000101739 0)
(10.2644 4.05009e-005 0)
(10.2643 -2.11136e-005 0)
(10.2644 -6.54414e-005 0)
(10.2644 -7.97423e-005 0)
(10.2644 -6.03798e-005 0)
(10.2644 -1.43039e-005 0)
(10.2645 4.28239e-005 0)
(10.2645 9.13444e-005 0)
(10.2644 0.000113576 0)
(10.2644 9.90625e-005 0)
(10.2644 4.74533e-005 0)
(10.2643 -3.17169e-005 0)
(10.2643 -0.000122093 0)
(10.2643 -0.000205363 0)
(10.2643 -0.000266488 0)
(10.2644 -0.000297888 0)
(10.2644 -0.000301476 0)
(10.2645 -0.000288055 0)
(10.2645 -0.000274264 0)
(10.2645 -0.000277924 0)
(10.2645 -0.000313103 0)
(10.2645 -0.000386293 0)
(10.2645 -0.000494847 0)
(10.2645 -0.000628199 0)
(10.2646 -0.000771588 0)
(10.2646 -0.000911209 0)
(10.2647 -0.00103922 0)
(10.2648 -0.00115699 0)
(10.2648 -0.0012755 0)
(10.2649 -0.00141275 0)
(10.265 -0.00158902 0)
(10.2651 -0.00182152 0)
(10.2652 -0.00212015 0)
(10.2653 -0.00248585 0)
(10.2654 -0.00291194 0)
(10.2655 -0.00338821 0)
(10.2657 -0.00390637 0)
(10.2659 -0.0044653 0)
(10.2661 -0.00507447 0)
(10.2663 -0.00575442 0)
(10.2664 -0.00653418 0)
(10.2666 -0.00744609 0)
(10.2666 -0.00851929 0)
(10.2667 -0.0097733 0)
(10.2666 -0.0112128 0)
(10.2664 -0.0128243 0)
(10.266 -0.0145756 0)
(10.2655 -0.0164174 0)
(10.3561 -0.000297623 0)
(10.3563 -0.000244087 0)
(10.3568 -0.000163148 0)
(10.3569 -6.44947e-005 0)
(10.3568 2.87692e-005 0)
(10.3567 9.25615e-005 0)
(10.3567 0.000115148 0)
(10.3567 9.84677e-005 0)
(10.3567 5.46956e-005 0)
(10.3567 2.59168e-006 0)
(10.3567 -3.73699e-005 0)
(10.3567 -4.91294e-005 0)
(10.3567 -2.6307e-005 0)
(10.3567 2.56e-005 0)
(10.3568 9.09671e-005 0)
(10.3568 0.000149112 0)
(10.3567 0.000180941 0)
(10.3567 0.000175011 0)
(10.3567 0.000131185 0)
(10.3567 6.08728e-005 0)
(10.3567 -1.61842e-005 0)
(10.3567 -7.76984e-005 0)
(10.3567 -0.000105673 0)
(10.3567 -9.21924e-005 0)
(10.3567 -4.22418e-005 0)
(10.3568 2.75216e-005 0)
(10.3568 9.37589e-005 0)
(10.3568 0.000133544 0)
(10.3567 0.000131201 0)
(10.3567 8.27403e-005 0)
(10.3567 -3.3236e-006 0)
(10.3567 -0.000108806 0)
(10.3567 -0.000211321 0)
(10.3567 -0.000290734 0)
(10.3567 -0.000334813 0)
(10.3567 -0.000342574 0)
(10.3568 -0.000324475 0)
(10.3568 -0.00029942 0)
(10.3568 -0.000289431 0)
(10.3568 -0.000313473 0)
(10.3568 -0.000382204 0)
(10.3568 -0.000495184 0)
(10.3568 -0.000641457 0)
(10.3568 -0.000803394 0)
(10.3568 -0.000962739 0)
(10.3569 -0.001107 0)
(10.3569 -0.00123416 0)
(10.357 -0.0013542 0)
(10.357 -0.0014868 0)
(10.3571 -0.00165612 0)
(10.3571 -0.0018841 0)
(10.3572 -0.00218474 0)
(10.3572 -0.00256097 0)
(10.3573 -0.00300523 0)
(10.3573 -0.00350362 0)
(10.3574 -0.00404219 0)
(10.3575 -0.00461353 0)
(10.3576 -0.00522157 0)
(10.3576 -0.00588311 0)
(10.3577 -0.00662541 0)
(10.3576 -0.00748057 0)
(10.3576 -0.00847801 0)
(10.3574 -0.00963689 0)
(10.3571 -0.0109605 0)
(10.3568 -0.0124335 0)
(10.3563 -0.014023 0)
(10.3556 -0.0156833 0)
(10.4075 -0.000319845 0)
(10.4077 -0.000270046 0)
(10.4081 -0.000184627 0)
(10.4082 -7.80334e-005 0)
(10.4082 2.52771e-005 0)
(10.4081 9.96004e-005 0)
(10.4081 0.000130229 0)
(10.4081 0.000116389 0)
(10.4081 6.93896e-005 0)
(10.4081 9.2469e-006 0)
(10.4081 -4.08296e-005 0)
(10.4081 -6.14826e-005 0)
(10.4081 -4.34302e-005 0)
(10.4081 9.45696e-006 0)
(10.4081 8.13544e-005 0)
(10.4081 0.000149575 0)
(10.4081 0.000191844 0)
(10.4081 0.000193378 0)
(10.4081 0.000151594 0)
(10.4081 7.71268e-005 0)
(10.4081 -9.11585e-006 0)
(10.4081 -8.21118e-005 0)
(10.4081 -0.000120354 0)
(10.4081 -0.000112721 0)
(10.4081 -6.23095e-005 0)
(10.4081 1.42006e-005 0)
(10.4081 9.15278e-005 0)
(10.4081 0.000143479 0)
(10.4081 0.000150784 0)
(10.4081 0.000106597 0)
(10.4081 1.81378e-005 0)
(10.4081 -9.58031e-005 0)
(10.4081 -0.000210546 0)
(10.4081 -0.000302673 0)
(10.4081 -0.000356633 0)
(10.4081 -0.000369035 0)
(10.4081 -0.000349509 0)
(10.4081 -0.000317928 0)
(10.4081 -0.000298775 0)
(10.4081 -0.000314239 0)
(10.4081 -0.000378014 0)
(10.4081 -0.000491618 0)
(10.4081 -0.000644383 0)
(10.4081 -0.000817223 0)
(10.4081 -0.000989104 0)
(10.4081 -0.00114429 0)
(10.4082 -0.00127808 0)
(10.4082 -0.00139911 0)
(10.4082 -0.00152756 0)
(10.4082 -0.00168961 0)
(10.4082 -0.00191017 0)
(10.4082 -0.00220601 0)
(10.4082 -0.00258165 0)
(10.4082 -0.00302924 0)
(10.4082 -0.00353254 0)
(10.4082 -0.00407362 0)
(10.4081 -0.00464024 0)
(10.4081 -0.00523163 0)
(10.408 -0.00586081 0)
(10.4079 -0.00655265 0)
(10.4077 -0.00733811 0)
(10.4075 -0.00824634 0)
(10.4072 -0.00929659 0)
(10.4068 -0.0104923 0)
(10.4063 -0.0118185 0)
(10.4056 -0.0132442 0)
(10.4048 -0.0147273 0)
(10.4063 -0.00032068 0)
(10.4065 -0.00027007 0)
(10.4069 -0.000182449 0)
(10.407 -7.62326e-005 0)
(10.4069 2.51932e-005 0)
(10.4068 9.82819e-005 0)
(10.4069 0.000128654 0)
(10.4069 0.000114863 0)
(10.4069 6.7867e-005 0)
(10.4069 7.75861e-006 0)
(10.4069 -4.21693e-005 0)
(10.4069 -6.26147e-005 0)
(10.4069 -4.43881e-005 0)
(10.4069 8.59579e-006 0)
(10.4069 8.0522e-005 0)
(10.4069 0.000148749 0)
(10.4069 0.000191065 0)
(10.4069 0.000192743 0)
(10.4069 0.000151233 0)
(10.4069 7.71495e-005 0)
(10.4069 -8.66247e-006 0)
(10.4069 -8.12613e-005 0)
(10.4069 -0.000119205 0)
(10.4069 -0.000111411 0)
(10.4069 -6.09932e-005 0)
(10.4069 1.53773e-005 0)
(10.4069 9.24663e-005 0)
(10.4069 0.000144163 0)
(10.4069 0.000151291 0)
(10.4069 0.000107074 0)
(10.4069 1.8742e-005 0)
(10.4069 -9.49668e-005 0)
(10.4069 -0.000209458 0)
(10.4069 -0.000301387 0)
(10.4069 -0.000355252 0)
(10.4069 -0.000367677 0)
(10.4069 -0.000348275 0)
(10.4069 -0.000316868 0)
(10.4069 -0.000297865 0)
(10.4068 -0.000313368 0)
(10.4068 -0.000376996 0)
(10.4069 -0.000490217 0)
(10.4068 -0.000642352 0)
(10.4068 -0.000814318 0)
(10.4068 -0.000985085 0)
(10.4068 -0.00113889 0)
(10.4068 -0.00127095 0)
(10.4068 -0.00138975 0)
(10.4067 -0.00151523 0)
(10.4067 -0.00167325 0)
(10.4067 -0.00188832 0)
(10.4066 -0.00217674 0)
(10.4066 -0.00254246 0)
(10.4065 -0.00297696 0)
(10.4064 -0.00346316 0)
(10.4063 -0.00398209 0)
(10.4062 -0.0045202 0)
(10.406 -0.00507515 0)
(10.4058 -0.00565803 0)
(10.4056 -0.00629149 0)
(10.4053 -0.00700413 0)
(10.4049 -0.00782277 0)
(10.4045 -0.00876481 0)
(10.4039 -0.0098327 0)
(10.4033 -0.0110122 0)
(10.4025 -0.0122747 0)
(10.4016 -0.0135832 0)
(10.3527 -0.000299629 0)
(10.3529 -0.000244327 0)
(10.3533 -0.000157733 0)
(10.3534 -6.00453e-005 0)
(10.3533 2.82651e-005 0)
(10.3532 8.88063e-005 0)
(10.3532 0.000110746 0)
(10.3533 9.42168e-005 0)
(10.3533 5.04415e-005 0)
(10.3533 -1.60453e-006 0)
(10.3533 -4.12044e-005 0)
(10.3533 -5.24487e-005 0)
(10.3533 -2.92075e-005 0)
(10.3533 2.2929e-005 0)
(10.3533 8.84034e-005 0)
(10.3533 0.000146673 0)
(10.3533 0.000178791 0)
(10.3533 0.00017343 0)
(10.3533 0.000130483 0)
(10.3533 6.1285e-005 0)
(10.3534 -1.45922e-005 0)
(10.3534 -7.50635e-005 0)
(10.3533 -0.000102303 0)
(10.3533 -8.84953e-005 0)
(10.3533 -3.86412e-005 0)
(10.3533 3.06812e-005 0)
(10.3533 9.63e-005 0)
(10.3533 0.000135506 0)
(10.3533 0.000132828 0)
(10.3533 8.43933e-005 0)
(10.3533 -1.29851e-006 0)